 Q-Chem 5.4, Q-Chem, Inc., Pleasanton, CA (2021)
 Q-Chem 5.4.0 for Intel X86 EM64T Linux

User input:
--------------------------------------------------------------
$molecule
0 1
C	0.135301	-3.866725	-0.763228
C	-0.106073	-3.703963	0.603311
C	-0.185286	-2.357056	1.050423
H	-0.225783	-4.561092	1.283188
C	0.000000	-1.440664	0.000000
S	0.268187	-2.286957	-1.521021
C	-0.438209	-1.978743	2.483507
H	-0.550153	-2.878678	3.118798
H	-1.363906	-1.376015	2.593381
H	0.393798	-1.375728	2.903516
C	0.000000	0.000000	0.000000
C	0.747916	0.431772	1.099446
C	1.946425	1.123709	0.776721
H	0.428523	0.247378	2.136088
C	2.137531	1.234018	-0.612546
S	0.816154	0.471179	-1.486809
C	2.888455	1.667564	1.814609
H	2.519842	1.454746	2.836676
H	3.008896	2.767543	1.726239
H	3.901271	1.221850	1.726228
H	2.959587	1.708609	-1.161575
H	-0.688674	-4.392713	-1.258111
H	1.079084	-4.392347	-0.946272
H	-1.063572	-1.440937	-0.187654
$end

$rem
JOBTYPE		SP
EXCHANGE	HF
CORRELATION	pRIMP2
BASIS		cc-pvtz
METHOD		rimp2
AUX_BASIS	rimp2-cc-pvtz
SOLVENT_METHOD	PCM
PURECART	11111
SYMMETRY	false
MEM_TOTAL	110000
SCF_CONVERGENCE = 6
THRESH=10
$end

$solvent
dielectric 4.90
$end
--------------------------------------------------------------

             Standard Nuclear Orientation (Angstroms)
    I     Atom           X                Y                Z
 ----------------------------------------------------------------
    1      C       0.1353010000    -3.8667250000    -0.7632280000
    2      C      -0.1060730000    -3.7039630000     0.6033110000
    3      C      -0.1852860000    -2.3570560000     1.0504230000
    4      H      -0.2257830000    -4.5610920000     1.2831880000
    5      C       0.0000000000    -1.4406640000     0.0000000000
    6      S       0.2681870000    -2.2869570000    -1.5210210000
    7      C      -0.4382090000    -1.9787430000     2.4835070000
    8      H      -0.5501530000    -2.8786780000     3.1187980000
    9      H      -1.3639060000    -1.3760150000     2.5933810000
   10      H       0.3937980000    -1.3757280000     2.9035160000
   11      C       0.0000000000     0.0000000000     0.0000000000
   12      C       0.7479160000     0.4317720000     1.0994460000
   13      C       1.9464250000     1.1237090000     0.7767210000
   14      H       0.4285230000     0.2473780000     2.1360880000
   15      C       2.1375310000     1.2340180000    -0.6125460000
   16      S       0.8161540000     0.4711790000    -1.4868090000
   17      C       2.8884550000     1.6675640000     1.8146090000
   18      H       2.5198420000     1.4547460000     2.8366760000
   19      H       3.0088960000     2.7675430000     1.7262390000
   20      H       3.9012710000     1.2218500000     1.7262280000
   21      H       2.9595870000     1.7086090000    -1.1615750000
   22      H      -0.6886740000    -4.3927130000    -1.2581110000
   23      H       1.0790840000    -4.3923470000    -0.9462720000
   24      H      -1.0635720000    -1.4409370000    -0.1876540000
 ----------------------------------------------------------------

   11   -1180.6568712882      6.95e-07  Convergence criterion met
 Total energy in the final basis set =    -1180.6568712882
        RIMP2         total energy =     -1182.6864354442 a.u.

                    Orbital Energies (a.u.)
 --------------------------------------------------------------

 Alpha MOs
 -- Occupied --
-91.9787 -91.9377 -11.2835 -11.2596 -11.2546 -11.2514 -11.2500 -11.2452
-11.2344 -11.2319 -11.2301 -11.2109  -8.9799  -8.9424  -6.6606  -6.6597
 -6.6595  -6.6237  -6.6226  -6.6213  -1.2045  -1.1525  -1.0574  -1.0329
 -0.9966  -0.9663  -0.9116  -0.9011  -0.8133  -0.7590  -0.7351  -0.7100
 -0.6486  -0.6394  -0.6121  -0.5971  -0.5866  -0.5680  -0.5663  -0.5485
 -0.5433  -0.5347  -0.5201  -0.5055  -0.4809  -0.4771  -0.4441  -0.4301
 -0.3621  -0.3368  -0.3202  -0.2492

          Ground-State Mulliken Net Atomic Charges

     Atom                 Charge (a.u.)
  ----------------------------------------
      1 C                    -0.081610
      2 C                    -0.344538
      3 C                    -0.032627
      4 H                     0.172709
      5 C                     0.068914
      6 S                    -0.186770
      7 C                    -0.290295
      8 H                     0.119017
      9 H                     0.109934
     10 H                     0.098136
     11 C                    -0.155913
     12 C                    -0.145350
     13 C                    -0.017818
     14 H                     0.199998
     15 C                    -0.184915
     16 S                     0.028813
     17 C                    -0.269649
     18 H                     0.101109
     19 H                     0.108510
     20 H                     0.105807
     21 H                     0.200853
     22 H                     0.106387
     23 H                     0.107872
     24 H                     0.181423
  ----------------------------------------
  Sum of atomic charges =     0.000000

                    Cartesian Multipole Moments
 -----------------------------------------------------------------
    Charge (ESU x 10^10)
                -0.0000
    Dipole Moment (Debye)
         X       1.4628      Y       0.6779      Z       3.6649
       Tot       4.0039
    Quadrupole Moments (Debye-Ang)
        XX     -82.6137     XY       7.1026     YY     -84.4728
        XZ       0.4518     YZ      -2.5541     ZZ     -84.7507

 Total job time:  789.25s(wall), 784.19s(cpu)
        *  Thank you very much for using Q-Chem.  Have a nice day.  *
