 Q-Chem 5.4, Q-Chem, Inc., Pleasanton, CA (2021)
 Q-Chem 5.4.0 for Intel X86 EM64T Linux

User input:
--------------------------------------------------------------
$molecule
0 1
C	0.728138	-3.866725	0.265779
C	-0.575726	-3.703963	-0.209225
C	-1.002290	-2.357056	-0.364875
H	-1.224486	-4.561092	-0.445176
C	-0.000000	-1.440664	-0.000000
S	1.451343	-2.286957	0.528236
C	-2.369683	-1.978743	-0.862808
H	-2.975883	-2.878678	-1.083368
H	-2.317142	-1.376015	-1.793522
H	-2.927787	-1.375728	-0.116375
C	0.000000	0.000000	0.000000
C	0.555137	0.661535	1.099446
C	1.444710	1.721658	0.776721
H	0.318072	0.379023	2.136088
C	1.586563	1.890676	-0.612546
S	0.605781	0.721904	-1.486809
C	2.143920	2.554907	1.814609
H	1.870325	2.228851	2.836676
H	1.880882	3.629742	1.726239
H	3.248098	2.482476	1.726228
H	2.196723	2.617806	-1.161575
H	1.358585	-4.392713	-0.459743
H	0.744515	-4.392347	1.227009
H	-0.369490	-1.440391	1.014829
$end

$rem
JOBTYPE		SP
EXCHANGE	HF
CORRELATION	pRIMP2
BASIS		cc-pvtz
METHOD		rimp2
AUX_BASIS	rimp2-cc-pvtz
SOLVENT_METHOD	PCM
PURECART	11111
SYMMETRY	false
MEM_TOTAL	110000
SCF_CONVERGENCE = 6
THRESH=10
$end

$solvent
dielectric 4.90
$end
--------------------------------------------------------------

             Standard Nuclear Orientation (Angstroms)
    I     Atom           X                Y                Z
 ----------------------------------------------------------------
    1      C       0.7281380000    -3.8667250000     0.2657790000
    2      C      -0.5757260000    -3.7039630000    -0.2092250000
    3      C      -1.0022900000    -2.3570560000    -0.3648750000
    4      H      -1.2244860000    -4.5610920000    -0.4451760000
    5      C       0.0000000000    -1.4406640000     0.0000000000
    6      S       1.4513430000    -2.2869570000     0.5282360000
    7      C      -2.3696830000    -1.9787430000    -0.8628080000
    8      H      -2.9758830000    -2.8786780000    -1.0833680000
    9      H      -2.3171420000    -1.3760150000    -1.7935220000
   10      H      -2.9277870000    -1.3757280000    -0.1163750000
   11      C       0.0000000000     0.0000000000     0.0000000000
   12      C       0.5551370000     0.6615350000     1.0994460000
   13      C       1.4447100000     1.7216580000     0.7767210000
   14      H       0.3180720000     0.3790230000     2.1360880000
   15      C       1.5865630000     1.8906760000    -0.6125460000
   16      S       0.6057810000     0.7219040000    -1.4868090000
   17      C       2.1439200000     2.5549070000     1.8146090000
   18      H       1.8703250000     2.2288510000     2.8366760000
   19      H       1.8808820000     3.6297420000     1.7262390000
   20      H       3.2480980000     2.4824760000     1.7262280000
   21      H       2.1967230000     2.6178060000    -1.1615750000
   22      H       1.3585850000    -4.3927130000    -0.4597430000
   23      H       0.7445150000    -4.3923470000     1.2270090000
   24      H      -0.3694900000    -1.4403910000     1.0148290000
 ----------------------------------------------------------------

   10   -1180.7353588557      6.27e-07  Convergence criterion met
 Total energy in the final basis set =    -1180.7353588557
        RIMP2         total energy =     -1182.7474051700 a.u.

                    Orbital Energies (a.u.)
 --------------------------------------------------------------

 Alpha MOs
 -- Occupied --
-91.9777 -91.9389 -11.2750 -11.2680 -11.2581 -11.2523 -11.2519 -11.2512
-11.2387 -11.2304 -11.2297 -11.2158  -8.9783  -8.9437  -6.6591  -6.6584
 -6.6580  -6.6250  -6.6240  -6.6227  -1.1994  -1.1540  -1.0574  -1.0251
 -1.0064  -0.9577  -0.9112  -0.9015  -0.8127  -0.7628  -0.7367  -0.6973
 -0.6582  -0.6389  -0.6113  -0.5890  -0.5804  -0.5735  -0.5654  -0.5497
 -0.5399  -0.5334  -0.5106  -0.5072  -0.4909  -0.4694  -0.4575  -0.4477
 -0.3562  -0.3384  -0.3148  -0.2765

          Ground-State Mulliken Net Atomic Charges

     Atom                 Charge (a.u.)
  ----------------------------------------
      1 C                    -0.077356
      2 C                    -0.325131
      3 C                    -0.043139
      4 H                     0.174381
      5 C                     0.066818
      6 S                    -0.177809
      7 C                    -0.273959
      8 H                     0.113095
      9 H                     0.105295
     10 H                     0.103351
     11 C                    -0.060243
     12 C                    -0.266225
     13 C                     0.047373
     14 H                     0.185514
     15 C                    -0.213914
     16 S                     0.007629
     17 C                    -0.266878
     18 H                     0.102466
     19 H                     0.107525
     20 H                     0.108327
     21 H                     0.198607
     22 H                     0.110937
     23 H                     0.107180
     24 H                     0.166154
  ----------------------------------------
  Sum of atomic charges =     0.000000

                    Cartesian Multipole Moments
 -----------------------------------------------------------------
    Charge (ESU x 10^10)
                -0.0000
    Dipole Moment (Debye)
         X      -0.9472      Y       0.7988      Z       1.5667
       Tot       1.9975
    Quadrupole Moments (Debye-Ang)
        XX     -87.1218     XY       9.5980     YY     -78.6715
        XZ       0.9686     YZ       0.7419     ZZ     -85.6247

 Total job time:  654.09s(wall), 650.12s(cpu)
        *  Thank you very much for using Q-Chem.  Have a nice day.  *
