 Q-Chem 5.4, Q-Chem, Inc., Pleasanton, CA (2021)
 Q-Chem 5.4.0 for Intel X86 EM64T Linux

User input:
--------------------------------------------------------------
$molecule
0 1
C	0.775127	-3.866725	0.000713
C	-0.612565	-3.703963	0.000302
C	-1.066639	-2.357056	-0.000067
H	-1.302900	-4.561092	0.000470
C	-0.000000	-1.440664	-0.000000
S	1.544483	-2.286957	-0.000009
C	-2.521872	-1.978743	-0.000295
H	-3.166949	-2.878678	-0.000221
H	-2.790821	-1.376015	-0.892850
H	-2.791023	-1.375728	0.892005
C	0.000000	0.000000	0.000000
C	0.555137	0.661535	1.099446
C	1.444710	1.721658	0.776721
H	0.318072	0.379023	2.136088
C	1.586563	1.890676	-0.612546
S	0.605781	0.721904	-1.486809
C	2.143920	2.554907	1.814609
H	1.870325	2.228851	2.836676
H	1.880882	3.629742	1.726239
H	3.248098	2.482476	1.726228
H	2.196723	2.617806	-1.161575
H	1.119411	-4.392713	-0.896681
H	1.119277	-4.392347	0.898372
H	-0.000115	-1.440391	1.080000
$end

$rem
JOBTYPE		SP
EXCHANGE	HF
CORRELATION	pRIMP2
BASIS		cc-pvtz
METHOD		rimp2
AUX_BASIS	rimp2-cc-pvtz
SOLVENT_METHOD	PCM
PURECART	11111
SYMMETRY	false
MEM_TOTAL	110000
SCF_CONVERGENCE = 6
THRESH=10
$end

$solvent
dielectric 4.90
$end
--------------------------------------------------------------

             Standard Nuclear Orientation (Angstroms)
    I     Atom           X                Y                Z
 ----------------------------------------------------------------
    1      C       0.7751270000    -3.8667250000     0.0007130000
    2      C      -0.6125650000    -3.7039630000     0.0003020000
    3      C      -1.0666390000    -2.3570560000    -0.0000670000
    4      H      -1.3029000000    -4.5610920000     0.0004700000
    5      C       0.0000000000    -1.4406640000     0.0000000000
    6      S       1.5444830000    -2.2869570000    -0.0000090000
    7      C      -2.5218720000    -1.9787430000    -0.0002950000
    8      H      -3.1669490000    -2.8786780000    -0.0002210000
    9      H      -2.7908210000    -1.3760150000    -0.8928500000
   10      H      -2.7910230000    -1.3757280000     0.8920050000
   11      C       0.0000000000     0.0000000000     0.0000000000
   12      C       0.5551370000     0.6615350000     1.0994460000
   13      C       1.4447100000     1.7216580000     0.7767210000
   14      H       0.3180720000     0.3790230000     2.1360880000
   15      C       1.5865630000     1.8906760000    -0.6125460000
   16      S       0.6057810000     0.7219040000    -1.4868090000
   17      C       2.1439200000     2.5549070000     1.8146090000
   18      H       1.8703250000     2.2288510000     2.8366760000
   19      H       1.8808820000     3.6297420000     1.7262390000
   20      H       3.2480980000     2.4824760000     1.7262280000
   21      H       2.1967230000     2.6178060000    -1.1615750000
   22      H       1.1194110000    -4.3927130000    -0.8966810000
   23      H       1.1192770000    -4.3923470000     0.8983720000
   24      H      -0.0001150000    -1.4403910000     1.0800000000
 ----------------------------------------------------------------

   10   -1180.7336062016      6.22e-07  Convergence criterion met
 Total energy in the final basis set =    -1180.7336062016
        RIMP2         total energy =     -1182.7454612451 a.u.

                    Orbital Energies (a.u.)
 --------------------------------------------------------------

 Alpha MOs
 -- Occupied --
-91.9782 -91.9388 -11.2751 -11.2680 -11.2574 -11.2519 -11.2511 -11.2508
-11.2387 -11.2302 -11.2297 -11.2144  -8.9786  -8.9436  -6.6595  -6.6588
 -6.6584  -6.6249  -6.6239  -6.6226  -1.1996  -1.1537  -1.0573  -1.0254
 -1.0052  -0.9585  -0.9100  -0.9017  -0.8129  -0.7590  -0.7399  -0.6981
 -0.6588  -0.6386  -0.6108  -0.5892  -0.5808  -0.5718  -0.5649  -0.5496
 -0.5399  -0.5319  -0.5077  -0.5069  -0.4929  -0.4702  -0.4584  -0.4468
 -0.3585  -0.3352  -0.3124  -0.2793

          Ground-State Mulliken Net Atomic Charges

     Atom                 Charge (a.u.)
  ----------------------------------------
      1 C                    -0.075333
      2 C                    -0.329729
      3 C                    -0.042836
      4 H                     0.173865
      5 C                     0.055138
      6 S                    -0.174718
      7 C                    -0.272021
      8 H                     0.112771
      9 H                     0.106596
     10 H                     0.100326
     11 C                    -0.074050
     12 C                    -0.228459
     13 C                     0.033693
     14 H                     0.179911
     15 C                    -0.211847
     16 S                     0.010653
     17 C                    -0.267815
     18 H                     0.102034
     19 H                     0.107486
     20 H                     0.108132
     21 H                     0.198394
     22 H                     0.110844
     23 H                     0.107732
     24 H                     0.169232
  ----------------------------------------
  Sum of atomic charges =     0.000000

                    Cartesian Multipole Moments
 -----------------------------------------------------------------
    Charge (ESU x 10^10)
                -0.0000
    Dipole Moment (Debye)
         X      -0.7996      Y       0.8491      Z       2.3473
       Tot       2.6211
    Quadrupole Moments (Debye-Ang)
        XX     -86.9660     XY       9.1777     YY     -79.0202
        XZ       0.9104     YZ      -0.5110     ZZ     -85.7470

 Total job time:  653.92s(wall), 650.51s(cpu)
        *  Thank you very much for using Q-Chem.  Have a nice day.  *
