 Q-Chem 5.4, Q-Chem, Inc., Pleasanton, CA (2021)
 Q-Chem 5.4.0 for Intel X86 EM64T Linux

User input:
--------------------------------------------------------------
$molecule
0 1
C	0.763228	-3.866725	0.135301
C	-0.603311	-3.703963	-0.106073
C	-1.050423	-2.357056	-0.185286
H	-1.283188	-4.561092	-0.225783
C	0.000000	-1.440664	0.000000
S	1.521021	-2.286957	0.268187
C	-2.483507	-1.978743	-0.438209
H	-3.118798	-2.878678	-0.550153
H	-2.593381	-1.376015	-1.363906
H	-2.903516	-1.375728	0.393798
C	0.000000	0.000000	0.000000
C	0.661577	0.555087	1.099446
C	1.721724	1.444630	0.776721
H	0.379056	0.318032	2.136088
C	1.890772	1.586449	-0.612546
S	0.721935	0.605744	-1.486809
C	2.555004	2.143805	1.814609
H	2.228946	1.870211	2.836676
H	2.482605	3.247987	1.726239
H	3.629830	1.880735	1.726228
H	2.617927	2.196579	-1.161575
H	1.258111	-4.392713	-0.688674
H	0.946272	-4.392347	1.079084
H	-0.187654	-1.440391	1.063572
$end

$rem
JOBTYPE		SP
EXCHANGE	HF
CORRELATION	pRIMP2
BASIS		cc-pvtz
METHOD		rimp2
AUX_BASIS	rimp2-cc-pvtz
SOLVENT_METHOD	PCM
PURECART	11111
SYMMETRY	false
MEM_TOTAL	110000
SCF_CONVERGENCE = 6
THRESH=10
$end

$solvent
dielectric 4.90
$end
--------------------------------------------------------------

             Standard Nuclear Orientation (Angstroms)
    I     Atom           X                Y                Z
 ----------------------------------------------------------------
    1      C       0.7632280000    -3.8667250000     0.1353010000
    2      C      -0.6033110000    -3.7039630000    -0.1060730000
    3      C      -1.0504230000    -2.3570560000    -0.1852860000
    4      H      -1.2831880000    -4.5610920000    -0.2257830000
    5      C       0.0000000000    -1.4406640000     0.0000000000
    6      S       1.5210210000    -2.2869570000     0.2681870000
    7      C      -2.4835070000    -1.9787430000    -0.4382090000
    8      H      -3.1187980000    -2.8786780000    -0.5501530000
    9      H      -2.5933810000    -1.3760150000    -1.3639060000
   10      H      -2.9035160000    -1.3757280000     0.3937980000
   11      C       0.0000000000     0.0000000000     0.0000000000
   12      C       0.6615770000     0.5550870000     1.0994460000
   13      C       1.7217240000     1.4446300000     0.7767210000
   14      H       0.3790560000     0.3180320000     2.1360880000
   15      C       1.8907720000     1.5864490000    -0.6125460000
   16      S       0.7219350000     0.6057440000    -1.4868090000
   17      C       2.5550040000     2.1438050000     1.8146090000
   18      H       2.2289460000     1.8702110000     2.8366760000
   19      H       2.4826050000     3.2479870000     1.7262390000
   20      H       3.6298300000     1.8807350000     1.7262280000
   21      H       2.6179270000     2.1965790000    -1.1615750000
   22      H       1.2581110000    -4.3927130000    -0.6886740000
   23      H       0.9462720000    -4.3923470000     1.0790840000
   24      H      -0.1876540000    -1.4403910000     1.0635720000
 ----------------------------------------------------------------

   10   -1180.7168759366      7.12e-07  Convergence criterion met
 Total energy in the final basis set =    -1180.7168759366
        RIMP2         total energy =     -1182.7328756035 a.u.

                    Orbital Energies (a.u.)
 --------------------------------------------------------------

 Alpha MOs
 -- Occupied --
-91.9771 -91.9366 -11.2820 -11.2599 -11.2569 -11.2557 -11.2524 -11.2499
-11.2375 -11.2302 -11.2293 -11.2131  -8.9779  -8.9415  -6.6587  -6.6579
 -6.6576  -6.6228  -6.6218  -6.6206  -1.2017  -1.1538  -1.0576  -1.0245
 -1.0064  -0.9574  -0.9099  -0.9020  -0.8116  -0.7603  -0.7416  -0.6961
 -0.6573  -0.6376  -0.6121  -0.5904  -0.5799  -0.5733  -0.5646  -0.5492
 -0.5392  -0.5338  -0.5077  -0.5063  -0.4921  -0.4659  -0.4543  -0.4463
 -0.3590  -0.3335  -0.3139  -0.2775

          Ground-State Mulliken Net Atomic Charges

     Atom                 Charge (a.u.)
  ----------------------------------------
      1 C                    -0.079191
      2 C                    -0.327468
      3 C                    -0.055764
      4 H                     0.173451
      5 C                     0.066570
      6 S                    -0.183108
      7 C                    -0.273787
      8 H                     0.112566
      9 H                     0.105500
     10 H                     0.101298
     11 C                    -0.098855
     12 C                    -0.210598
     13 C                     0.029134
     14 H                     0.183990
     15 C                    -0.189241
     16 S                     0.012487
     17 C                    -0.266360
     18 H                     0.102513
     19 H                     0.107807
     20 H                     0.107896
     21 H                     0.199846
     22 H                     0.110791
     23 H                     0.106777
     24 H                     0.163743
  ----------------------------------------
  Sum of atomic charges =     0.000000

                    Cartesian Multipole Moments
 -----------------------------------------------------------------
    Charge (ESU x 10^10)
                -0.0000
    Dipole Moment (Debye)
         X      -0.3165      Y       0.9291      Z       1.9988
       Tot       2.2267
    Quadrupole Moments (Debye-Ang)
        XX     -84.7741     XY       9.7663     YY     -81.2830
        XZ       0.9652     YZ       0.0102     ZZ     -85.4915

 Total job time:  666.68s(wall), 663.91s(cpu)
        *  Thank you very much for using Q-Chem.  Have a nice day.  *
