 Q-Chem 5.4, Q-Chem, Inc., Pleasanton, CA (2021)
 Q-Chem 5.4.0 for Intel X86 EM64T Linux

User input:
--------------------------------------------------------------
$molecule
0 1
C	0.670924	-3.866725	0.388181
C	-0.530648	-3.703963	-0.306020
C	-0.923703	-2.357056	-0.533378
H	-1.128579	-4.561092	-0.651043
C	0.000000	-1.440664	0.000000
S	1.337567	-2.286957	0.772234
C	-2.183857	-1.978743	-1.261192
H	-2.742548	-2.878678	-1.583666
H	-1.970497	-1.376015	-2.168641
H	-2.863099	-1.375728	-0.623012
C	0.000000	0.000000	0.000000
C	0.747916	0.431772	1.099446
C	1.946425	1.123709	0.776721
H	0.428523	0.247378	2.136088
C	2.137531	1.234018	-0.612546
S	0.816154	0.471179	-1.486809
C	2.888455	1.667564	1.814609
H	2.519842	1.454746	2.836676
H	3.008896	2.767543	1.726239
H	3.901271	1.221850	1.726228
H	2.959587	1.708609	-1.161575
H	1.417779	-4.392713	-0.216843
H	0.520136	-4.392347	1.337652
H	-0.540100	-1.440391	0.935250
$end

$rem
JOBTYPE		SP
EXCHANGE	HF
CORRELATION	pRIMP2
BASIS		cc-pvtz
METHOD		rimp2
AUX_BASIS	rimp2-cc-pvtz
SOLVENT_METHOD	PCM
PURECART	11111
SYMMETRY	false
MEM_TOTAL	110000
SCF_CONVERGENCE = 6
THRESH=10
$end

$solvent
dielectric 4.90
$end
--------------------------------------------------------------

             Standard Nuclear Orientation (Angstroms)
    I     Atom           X                Y                Z
 ----------------------------------------------------------------
    1      C       0.6709240000    -3.8667250000     0.3881810000
    2      C      -0.5306480000    -3.7039630000    -0.3060200000
    3      C      -0.9237030000    -2.3570560000    -0.5333780000
    4      H      -1.1285790000    -4.5610920000    -0.6510430000
    5      C       0.0000000000    -1.4406640000     0.0000000000
    6      S       1.3375670000    -2.2869570000     0.7722340000
    7      C      -2.1838570000    -1.9787430000    -1.2611920000
    8      H      -2.7425480000    -2.8786780000    -1.5836660000
    9      H      -1.9704970000    -1.3760150000    -2.1686410000
   10      H      -2.8630990000    -1.3757280000    -0.6230120000
   11      C       0.0000000000     0.0000000000     0.0000000000
   12      C       0.7479160000     0.4317720000     1.0994460000
   13      C       1.9464250000     1.1237090000     0.7767210000
   14      H       0.4285230000     0.2473780000     2.1360880000
   15      C       2.1375310000     1.2340180000    -0.6125460000
   16      S       0.8161540000     0.4711790000    -1.4868090000
   17      C       2.8884550000     1.6675640000     1.8146090000
   18      H       2.5198420000     1.4547460000     2.8366760000
   19      H       3.0088960000     2.7675430000     1.7262390000
   20      H       3.9012710000     1.2218500000     1.7262280000
   21      H       2.9595870000     1.7086090000    -1.1615750000
   22      H       1.4177790000    -4.3927130000    -0.2168430000
   23      H       0.5201360000    -4.3923470000     1.3376520000
   24      H      -0.5401000000    -1.4403910000     0.9352500000
 ----------------------------------------------------------------

   10   -1180.6924939233      8.02e-07  Convergence criterion met
 Total energy in the final basis set =    -1180.6924939233
        RIMP2         total energy =     -1182.7142546384 a.u.

                    Orbital Energies (a.u.)
 --------------------------------------------------------------

 Alpha MOs
 -- Occupied --
-91.9767 -91.9346 -11.2896 -11.2634 -11.2547 -11.2544 -11.2498 -11.2488
-11.2357 -11.2308 -11.2288 -11.2126  -8.9778  -8.9397  -6.6586  -6.6577
 -6.6575  -6.6210  -6.6200  -6.6187  -1.2054  -1.1538  -1.0584  -1.0239
 -1.0092  -0.9557  -0.9116  -0.9020  -0.8107  -0.7650  -0.7401  -0.6942
 -0.6554  -0.6369  -0.6149  -0.5913  -0.5785  -0.5772  -0.5648  -0.5493
 -0.5391  -0.5360  -0.5114  -0.5057  -0.4902  -0.4633  -0.4500  -0.4417
 -0.3542  -0.3373  -0.3203  -0.2682

          Ground-State Mulliken Net Atomic Charges

     Atom                 Charge (a.u.)
  ----------------------------------------
      1 C                    -0.088538
      2 C                    -0.322579
      3 C                    -0.067467
      4 H                     0.173397
      5 C                     0.088112
      6 S                    -0.193365
      7 C                    -0.276390
      8 H                     0.112969
      9 H                     0.104947
     10 H                     0.103068
     11 C                    -0.157513
     12 C                    -0.149730
     13 C                    -0.005406
     14 H                     0.193681
     15 C                    -0.160924
     16 S                     0.014267
     17 C                    -0.266977
     18 H                     0.104016
     19 H                     0.110462
     20 H                     0.107853
     21 H                     0.201458
     22 H                     0.109369
     23 H                     0.105299
     24 H                     0.159990
  ----------------------------------------
  Sum of atomic charges =     0.000000

                    Cartesian Multipole Moments
 -----------------------------------------------------------------
    Charge (ESU x 10^10)
                -0.0000
    Dipole Moment (Debye)
         X       0.3652      Y       0.9119      Z       1.2663
       Tot       1.6027
    Quadrupole Moments (Debye-Ang)
        XX     -82.4074     XY       9.6122     YY     -83.5986
        XZ       0.9428     YZ       1.1694     ZZ     -85.0975

 Total job time:  700.02s(wall), 694.84s(cpu)
        *  Thank you very much for using Q-Chem.  Have a nice day.  *
