 Q-Chem 5.4, Q-Chem, Inc., Pleasanton, CA (2021)
 Q-Chem 5.4.0 for Intel X86 EM64T Linux

User input:
--------------------------------------------------------------
$molecule
0 1
C	0.386946	-3.866725	0.671636
C	-0.306544	-3.703963	-0.530345
C	-0.533261	-2.357056	-0.923770
H	-0.651857	-4.561092	-1.128109
C	0.000000	-1.440664	0.000000
S	0.772250	-2.286957	1.337557
C	-1.260680	-1.978743	-2.184153
H	-1.583283	-2.878678	-2.742769
H	-0.622180	-1.376015	-2.863347
H	-2.168011	-1.375728	-1.971094
C	0.000000	0.000000	0.000000
C	0.747916	0.431772	1.099446
C	1.946425	1.123709	0.776721
H	0.428523	0.247378	2.136088
C	2.137531	1.234018	-0.612546
S	0.816154	0.471179	-1.486809
C	2.888455	1.667564	1.814609
H	2.519842	1.454746	2.836676
H	3.008896	2.767543	1.726239
H	3.901271	1.221850	1.726228
H	2.959587	1.708609	-1.161575
H	1.336254	-4.392713	0.521098
H	-0.218374	-4.392347	1.418509
H	-0.935365	-1.440391	0.539900
$end

$rem
JOBTYPE		SP
EXCHANGE	HF
CORRELATION	pRIMP2
BASIS		cc-pvtz
METHOD		rimp2
AUX_BASIS	rimp2-cc-pvtz
SOLVENT_METHOD	PCM
PURECART	11111
SYMMETRY	false
MEM_TOTAL	110000
SCF_CONVERGENCE = 6
THRESH=10
$end

$solvent
dielectric 4.90
$end
--------------------------------------------------------------

             Standard Nuclear Orientation (Angstroms)
    I     Atom           X                Y                Z
 ----------------------------------------------------------------
    1      C       0.3869460000    -3.8667250000     0.6716360000
    2      C      -0.3065440000    -3.7039630000    -0.5303450000
    3      C      -0.5332610000    -2.3570560000    -0.9237700000
    4      H      -0.6518570000    -4.5610920000    -1.1281090000
    5      C       0.0000000000    -1.4406640000     0.0000000000
    6      S       0.7722500000    -2.2869570000     1.3375570000
    7      C      -1.2606800000    -1.9787430000    -2.1841530000
    8      H      -1.5832830000    -2.8786780000    -2.7427690000
    9      H      -0.6221800000    -1.3760150000    -2.8633470000
   10      H      -2.1680110000    -1.3757280000    -1.9710940000
   11      C       0.0000000000     0.0000000000     0.0000000000
   12      C       0.7479160000     0.4317720000     1.0994460000
   13      C       1.9464250000     1.1237090000     0.7767210000
   14      H       0.4285230000     0.2473780000     2.1360880000
   15      C       2.1375310000     1.2340180000    -0.6125460000
   16      S       0.8161540000     0.4711790000    -1.4868090000
   17      C       2.8884550000     1.6675640000     1.8146090000
   18      H       2.5198420000     1.4547460000     2.8366760000
   19      H       3.0088960000     2.7675430000     1.7262390000
   20      H       3.9012710000     1.2218500000     1.7262280000
   21      H       2.9595870000     1.7086090000    -1.1615750000
   22      H       1.3362540000    -4.3927130000     0.5210980000
   23      H      -0.2183740000    -4.3923470000     1.4185090000
   24      H      -0.9353650000    -1.4403910000     0.5399000000
 ----------------------------------------------------------------

   11   -1180.6766299800      5.39e-07  Convergence criterion met
 Total energy in the final basis set =    -1180.6766299800
        RIMP2         total energy =     -1182.7023858518 a.u.

                    Orbital Energies (a.u.)
 --------------------------------------------------------------

 Alpha MOs
 -- Occupied --
-91.9758 -91.9370 -11.2852 -11.2606 -11.2582 -11.2537 -11.2521 -11.2471
-11.2360 -11.2301 -11.2298 -11.2129  -8.9772  -8.9421  -6.6580  -6.6569
 -6.6567  -6.6234  -6.6223  -6.6210  -1.2052  -1.1537  -1.0585  -1.0261
 -1.0088  -0.9558  -0.9126  -0.9029  -0.8103  -0.7715  -0.7305  -0.6966
 -0.6547  -0.6395  -0.6150  -0.5895  -0.5847  -0.5773  -0.5662  -0.5514
 -0.5391  -0.5360  -0.5175  -0.5080  -0.4879  -0.4601  -0.4498  -0.4377
 -0.3554  -0.3371  -0.3273  -0.2554

          Ground-State Mulliken Net Atomic Charges

     Atom                 Charge (a.u.)
  ----------------------------------------
      1 C                    -0.089350
      2 C                    -0.333472
      3 C                    -0.069430
      4 H                     0.174504
      5 C                     0.105687
      6 S                    -0.198664
      7 C                    -0.289208
      8 H                     0.115826
      9 H                     0.109455
     10 H                     0.107997
     11 C                    -0.152703
     12 C                    -0.155856
     13 C                     0.000306
     14 H                     0.199277
     15 C                    -0.182040
     16 S                     0.012839
     17 C                    -0.268781
     18 H                     0.104031
     19 H                     0.109633
     20 H                     0.107695
     21 H                     0.199777
     22 H                     0.107353
     23 H                     0.107087
     24 H                     0.178036
  ----------------------------------------
  Sum of atomic charges =     0.000000

                    Cartesian Multipole Moments
 -----------------------------------------------------------------
    Charge (ESU x 10^10)
                -0.0000
    Dipole Moment (Debye)
         X       0.7066      Y       0.6872      Z       0.1324
       Tot       0.9945
    Quadrupole Moments (Debye-Ang)
        XX     -82.6415     XY       8.5315     YY     -83.5868
        XZ       0.7740     YZ       3.0957     ZZ     -84.9772

 Total job time:  738.50s(wall), 733.55s(cpu)
        *  Thank you very much for using Q-Chem.  Have a nice day.  *
