 Q-Chem 5.4, Q-Chem, Inc., Pleasanton, CA (2021)
 Q-Chem 5.4.0 for Intel X86 EM64T Linux

User input:
--------------------------------------------------------------
$molecule
0 1
C	0.265779	-3.866725	-0.728138
C	-0.209225	-3.703963	0.575726
C	-0.364875	-2.357056	1.002290
H	-0.445176	-4.561092	1.224486
C	0.000000	-1.440664	0.000000
S	0.528236	-2.286957	-1.451343
C	-0.862808	-1.978743	2.369683
H	-1.083368	-2.878678	2.975883
H	-1.793522	-1.376015	2.317142
H	-0.116375	-1.375728	2.927787
C	0.000000	0.000000	0.000000
C	0.000033	0.863600	1.099446
C	0.000052	2.247508	0.776721
H	0.000026	0.494801	2.136088
C	0.000074	2.468165	-0.612546
S	0.000024	0.942399	-1.486809
C	0.000075	3.335257	1.814609
H	0.000074	2.909620	2.836676
H	-0.892314	3.989552	1.726239
H	0.892483	3.989525	1.726228
H	0.000094	3.417382	-1.161575
H	-0.459743	-4.392713	-1.358585
H	1.227009	-4.392347	-0.744515
H	1.014829	-1.440391	0.369490
$end

$rem
JOBTYPE		SP
EXCHANGE	HF
CORRELATION	pRIMP2
BASIS		cc-pvtz
METHOD		rimp2
AUX_BASIS	rimp2-cc-pvtz
SOLVENT_METHOD	PCM
PURECART	11111
SYMMETRY	false
MEM_TOTAL	110000
SCF_CONVERGENCE = 6
THRESH=10
$end

$solvent
dielectric 4.90
$end
--------------------------------------------------------------

   10   -1180.7578100208      5.05e-07  Convergence criterion met
 Total energy in the final basis set =    -1180.7578100208
        RIMP2         total energy =     -1182.7636518983 a.u.
 Total job time:  657.21s(wall), 652.98s(cpu)
        *  Thank you very much for using Q-Chem.  Have a nice day.  *
 Q-Chem 5.4, Q-Chem, Inc., Pleasanton, CA (2021)
 Q-Chem 5.4.0 for Intel X86 EM64T Linux

User input:
--------------------------------------------------------------
$molecule
0 1
C	0.265779	-3.866725	-0.728138
C	-0.209225	-3.703963	0.575726
C	-0.364875	-2.357056	1.002290
H	-0.445176	-4.561092	1.224486
C	0.000000	-1.440664	0.000000
S	0.528236	-2.286957	-1.451343
C	-0.862808	-1.978743	2.369683
H	-1.083368	-2.878678	2.975883
H	-1.793522	-1.376015	2.317142
H	-0.116375	-1.375728	2.927787
C	0.000000	0.000000	0.000000
C	0.000033	0.863600	1.099446
C	0.000052	2.247508	0.776721
H	0.000026	0.494801	2.136088
C	0.000074	2.468165	-0.612546
S	0.000024	0.942399	-1.486809
C	0.000075	3.335257	1.814609
H	0.000074	2.909620	2.836676
H	-0.892314	3.989552	1.726239
H	0.892483	3.989525	1.726228
H	0.000094	3.417382	-1.161575
H	-0.459743	-4.392713	-1.358585
H	1.227009	-4.392347	-0.744515
H	1.014829	-1.440391	0.369490
$end

$rem
JOBTYPE		SP
EXCHANGE	HF
CORRELATION	pRIMP2
BASIS		cc-pvtz
METHOD		rimp2
AUX_BASIS	rimp2-cc-pvtz
SOLVENT_METHOD	PCM
PURECART	11111
SYMMETRY	false
MEM_TOTAL	110000
SCF_CONVERGENCE = 6
THRESH=10
$end

$solvent
dielectric 4.90
$end
--------------------------------------------------------------

             Standard Nuclear Orientation (Angstroms)
    I     Atom           X                Y                Z
 ----------------------------------------------------------------
    1      C       0.2657790000    -3.8667250000    -0.7281380000
    2      C      -0.2092250000    -3.7039630000     0.5757260000
    3      C      -0.3648750000    -2.3570560000     1.0022900000
    4      H      -0.4451760000    -4.5610920000     1.2244860000
    5      C       0.0000000000    -1.4406640000     0.0000000000
    6      S       0.5282360000    -2.2869570000    -1.4513430000
    7      C      -0.8628080000    -1.9787430000     2.3696830000
    8      H      -1.0833680000    -2.8786780000     2.9758830000
    9      H      -1.7935220000    -1.3760150000     2.3171420000
   10      H      -0.1163750000    -1.3757280000     2.9277870000
   11      C       0.0000000000     0.0000000000     0.0000000000
   12      C       0.0000330000     0.8636000000     1.0994460000
   13      C       0.0000520000     2.2475080000     0.7767210000
   14      H       0.0000260000     0.4948010000     2.1360880000
   15      C       0.0000740000     2.4681650000    -0.6125460000
   16      S       0.0000240000     0.9423990000    -1.4868090000
   17      C       0.0000750000     3.3352570000     1.8146090000
   18      H       0.0000740000     2.9096200000     2.8366760000
   19      H      -0.8923140000     3.9895520000     1.7262390000
   20      H       0.8924830000     3.9895250000     1.7262280000
   21      H       0.0000940000     3.4173820000    -1.1615750000
   22      H      -0.4597430000    -4.3927130000    -1.3585850000
   23      H       1.2270090000    -4.3923470000    -0.7445150000
   24      H       1.0148290000    -1.4403910000     0.3694900000
 ----------------------------------------------------------------

   10   -1180.7578100208      5.05e-07  Convergence criterion met
 Total energy in the final basis set =    -1180.7578100208
        RIMP2         total energy =     -1182.7636518983 a.u.

                    Orbital Energies (a.u.)
 --------------------------------------------------------------

 Alpha MOs
 -- Occupied --
-91.9841 -91.9461 -11.2904 -11.2665 -11.2614 -11.2532 -11.2501 -11.2444
-11.2341 -11.2291 -11.2282 -11.2237  -8.9836  -8.9507  -6.6645  -6.6640
 -6.6634  -6.6321  -6.6311  -6.6298  -1.2024  -1.1523  -1.0604  -1.0317
 -1.0019  -0.9613  -0.9158  -0.8996  -0.8187  -0.7633  -0.7261  -0.7066
 -0.6598  -0.6486  -0.6108  -0.5935  -0.5863  -0.5692  -0.5597  -0.5533
 -0.5436  -0.5352  -0.5222  -0.5024  -0.4864  -0.4826  -0.4689  -0.4439
 -0.3603  -0.3439  -0.3234  -0.2651

          Ground-State Mulliken Net Atomic Charges

     Atom                 Charge (a.u.)
  ----------------------------------------
      1 C                    -0.074017
      2 C                    -0.313612
      3 C                    -0.064345
      4 H                     0.178611
      5 C                     0.136947
      6 S                    -0.180408
      7 C                    -0.296377
      8 H                     0.121229
      9 H                     0.118313
     10 H                     0.100255
     11 C                    -0.060224
     12 C                    -0.271480
     13 C                     0.032615
     14 H                     0.188220
     15 C                    -0.280338
     16 S                     0.010271
     17 C                    -0.273498
     18 H                     0.100615
     19 H                     0.108460
     20 H                     0.108578
     21 H                     0.195879
     22 H                     0.112800
     23 H                     0.112871
     24 H                     0.188636
  ----------------------------------------
  Sum of atomic charges =     0.000000

                    Cartesian Multipole Moments
 -----------------------------------------------------------------
    Charge (ESU x 10^10)
                -0.0000
    Dipole Moment (Debye)
         X      -0.0038      Y      -0.4862      Z       3.9026
       Tot       3.9327
    Quadrupole Moments (Debye-Ang)
        XX     -91.5267     XY      -0.2657     YY     -72.9177
        XZ      -0.3305     YZ      -2.6343     ZZ     -85.9563

 Total job time:  658.06s(wall), 654.37s(cpu)
        *  Thank you very much for using Q-Chem.  Have a nice day.  *
