 Q-Chem 5.4, Q-Chem, Inc., Pleasanton, CA (2021)
 Q-Chem 5.4.0 for Intel X86 EM64T Linux

User input:
--------------------------------------------------------------
$molecule
0 1
C	0.728138	-3.866725	0.265779
C	-0.575726	-3.703963	-0.209225
C	-1.002290	-2.357056	-0.364875
H	-1.224486	-4.561092	-0.445176
C	0.000000	-1.440664	0.000000
S	1.451343	-2.286957	0.528236
C	-2.369683	-1.978743	-0.862808
H	-2.975883	-2.878678	-1.083368
H	-2.317142	-1.376015	-1.793522
H	-2.927787	-1.375728	-0.116375
C	0.000000	0.000000	0.000000
C	0.661577	0.555087	1.099446
C	1.721724	1.444630	0.776721
H	0.379056	0.318032	2.136088
C	1.890772	1.586449	-0.612546
S	0.721935	0.605744	-1.486809
C	2.555004	2.143805	1.814609
H	2.228946	1.870211	2.836676
H	2.482605	3.247987	1.726239
H	3.629830	1.880735	1.726228
H	2.617927	2.196579	-1.161575
H	1.358585	-4.392713	-0.459743
H	0.744515	-4.392347	1.227009
H	-0.369490	-1.440391	1.014829
$end

$rem
JOBTYPE		SP
EXCHANGE	HF
CORRELATION	pRIMP2
BASIS		cc-pvtz
METHOD		rimp2
AUX_BASIS	rimp2-cc-pvtz
SOLVENT_METHOD	PCM
PURECART	11111
SYMMETRY	false
MEM_TOTAL	110000
SCF_CONVERGENCE = 6
THRESH=10
$end

$solvent
dielectric 4.90
$end
--------------------------------------------------------------

             Standard Nuclear Orientation (Angstroms)
    I     Atom           X                Y                Z
 ----------------------------------------------------------------
    1      C       0.7281380000    -3.8667250000     0.2657790000
    2      C      -0.5757260000    -3.7039630000    -0.2092250000
    3      C      -1.0022900000    -2.3570560000    -0.3648750000
    4      H      -1.2244860000    -4.5610920000    -0.4451760000
    5      C       0.0000000000    -1.4406640000     0.0000000000
    6      S       1.4513430000    -2.2869570000     0.5282360000
    7      C      -2.3696830000    -1.9787430000    -0.8628080000
    8      H      -2.9758830000    -2.8786780000    -1.0833680000
    9      H      -2.3171420000    -1.3760150000    -1.7935220000
   10      H      -2.9277870000    -1.3757280000    -0.1163750000
   11      C       0.0000000000     0.0000000000     0.0000000000
   12      C       0.6615770000     0.5550870000     1.0994460000
   13      C       1.7217240000     1.4446300000     0.7767210000
   14      H       0.3790560000     0.3180320000     2.1360880000
   15      C       1.8907720000     1.5864490000    -0.6125460000
   16      S       0.7219350000     0.6057440000    -1.4868090000
   17      C       2.5550040000     2.1438050000     1.8146090000
   18      H       2.2289460000     1.8702110000     2.8366760000
   19      H       2.4826050000     3.2479870000     1.7262390000
   20      H       3.6298300000     1.8807350000     1.7262280000
   21      H       2.6179270000     2.1965790000    -1.1615750000
   22      H       1.3585850000    -4.3927130000    -0.4597430000
   23      H       0.7445150000    -4.3923470000     1.2270090000
   24      H      -0.3694900000    -1.4403910000     1.0148290000
 ----------------------------------------------------------------

   10   -1180.7174154623      7.18e-07  Convergence criterion met
 Total energy in the final basis set =    -1180.7174154623
        RIMP2         total energy =     -1182.7336419273 a.u.

                    Orbital Energies (a.u.)
 --------------------------------------------------------------

 Alpha MOs
 -- Occupied --
-91.9770 -91.9368 -11.2818 -11.2599 -11.2568 -11.2561 -11.2528 -11.2503
-11.2374 -11.2302 -11.2295 -11.2139  -8.9778  -8.9417  -6.6586  -6.6578
 -6.6575  -6.6230  -6.6220  -6.6207  -1.2015  -1.1540  -1.0576  -1.0245
 -1.0071  -0.9570  -0.9107  -0.9019  -0.8116  -0.7625  -0.7394  -0.6958
 -0.6569  -0.6377  -0.6124  -0.5901  -0.5797  -0.5744  -0.5649  -0.5493
 -0.5392  -0.5345  -0.5098  -0.5065  -0.4909  -0.4653  -0.4540  -0.4467
 -0.3568  -0.3362  -0.3158  -0.2748

          Ground-State Mulliken Net Atomic Charges

     Atom                 Charge (a.u.)
  ----------------------------------------
      1 C                    -0.080215
      2 C                    -0.325262
      3 C                    -0.054209
      4 H                     0.173756
      5 C                     0.071966
      6 S                    -0.184387
      7 C                    -0.275051
      8 H                     0.112880
      9 H                     0.105103
     10 H                     0.102825
     11 C                    -0.097239
     12 C                    -0.222868
     13 C                     0.031605
     14 H                     0.187724
     15 C                    -0.189943
     16 S                     0.010802
     17 C                    -0.265859
     18 H                     0.102816
     19 H                     0.108054
     20 H                     0.107990
     21 H                     0.199958
     22 H                     0.110508
     23 H                     0.106280
     24 H                     0.162767
  ----------------------------------------
  Sum of atomic charges =     0.000000

                    Cartesian Multipole Moments
 -----------------------------------------------------------------
    Charge (ESU x 10^10)
                -0.0000
    Dipole Moment (Debye)
         X      -0.3570      Y       0.9054      Z       1.6100
       Tot       1.8813
    Quadrupole Moments (Debye-Ang)
        XX     -84.8415     XY       9.9256     YY     -81.1135
        XZ       0.9880     YZ       0.6260     ZZ     -85.4362

 Total job time:  664.74s(wall), 661.89s(cpu)
        *  Thank you very much for using Q-Chem.  Have a nice day.  *
