 Q-Chem 5.4, Q-Chem, Inc., Pleasanton, CA (2021)
 Q-Chem 5.4.0 for Intel X86 EM64T Linux

User input:
--------------------------------------------------------------
$molecule
0 1
C	0.593324	-3.866725	0.498788
C	-0.469446	-3.703963	-0.393517
C	-0.817050	-2.357056	-0.685674
H	-0.998381	-4.561092	-0.837128
C	-0.000000	-1.440664	-0.000000
S	1.183149	-2.286957	0.992768
C	-1.931676	-1.978743	-1.621254
H	-2.425882	-2.878678	-2.035845
H	-1.563980	-1.376015	-2.477868
H	-2.711417	-1.375728	-1.110719
C	0.000000	0.000000	0.000000
C	0.555137	0.661535	1.099446
C	1.444710	1.721658	0.776721
H	0.318072	0.379023	2.136088
C	1.586563	1.890676	-0.612546
S	0.605781	0.721904	-1.486809
C	2.143920	2.554907	1.814609
H	1.870325	2.228851	2.836676
H	1.880882	3.629742	1.726239
H	3.248098	2.482476	1.726228
H	2.196723	2.617806	-1.161575
H	1.433894	-4.392713	0.032646
H	0.279954	-4.392347	1.407651
H	-0.694299	-1.440391	0.827254
$end

$rem
JOBTYPE		SP
EXCHANGE	HF
CORRELATION	pRIMP2
BASIS		cc-pvtz
METHOD		rimp2
AUX_BASIS	rimp2-cc-pvtz
SOLVENT_METHOD	PCM
PURECART	11111
SYMMETRY	false
MEM_TOTAL	110000
SCF_CONVERGENCE = 6
THRESH=10
$end

$solvent
dielectric 4.90
$end
--------------------------------------------------------------

             Standard Nuclear Orientation (Angstroms)
    I     Atom           X                Y                Z
 ----------------------------------------------------------------
    1      C       0.5933240000    -3.8667250000     0.4987880000
    2      C      -0.4694460000    -3.7039630000    -0.3935170000
    3      C      -0.8170500000    -2.3570560000    -0.6856740000
    4      H      -0.9983810000    -4.5610920000    -0.8371280000
    5      C       0.0000000000    -1.4406640000     0.0000000000
    6      S       1.1831490000    -2.2869570000     0.9927680000
    7      C      -1.9316760000    -1.9787430000    -1.6212540000
    8      H      -2.4258820000    -2.8786780000    -2.0358450000
    9      H      -1.5639800000    -1.3760150000    -2.4778680000
   10      H      -2.7114170000    -1.3757280000    -1.1107190000
   11      C       0.0000000000     0.0000000000     0.0000000000
   12      C       0.5551370000     0.6615350000     1.0994460000
   13      C       1.4447100000     1.7216580000     0.7767210000
   14      H       0.3180720000     0.3790230000     2.1360880000
   15      C       1.5865630000     1.8906760000    -0.6125460000
   16      S       0.6057810000     0.7219040000    -1.4868090000
   17      C       2.1439200000     2.5549070000     1.8146090000
   18      H       1.8703250000     2.2288510000     2.8366760000
   19      H       1.8808820000     3.6297420000     1.7262390000
   20      H       3.2480980000     2.4824760000     1.7262280000
   21      H       2.1967230000     2.6178060000    -1.1615750000
   22      H       1.4338940000    -4.3927130000     0.0326460000
   23      H       0.2799540000    -4.3923470000     1.4076510000
   24      H      -0.6942990000    -1.4403910000     0.8272540000
 ----------------------------------------------------------------

   10   -1180.7311395819      6.57e-07  Convergence criterion met
 Total energy in the final basis set =    -1180.7311395819
        RIMP2         total energy =     -1182.7446649626 a.u.

                    Orbital Energies (a.u.)
 --------------------------------------------------------------

 Alpha MOs
 -- Occupied --
-91.9782 -91.9399 -11.2724 -11.2704 -11.2597 -11.2525 -11.2522 -11.2490
-11.2388 -11.2313 -11.2294 -11.2171  -8.9788  -8.9446  -6.6596  -6.6589
 -6.6585  -6.6259  -6.6249  -6.6236  -1.2000  -1.1539  -1.0578  -1.0257
 -1.0072  -0.9571  -0.9126  -0.9016  -0.8128  -0.7668  -0.7312  -0.6976
 -0.6581  -0.6402  -0.6116  -0.5882  -0.5809  -0.5757  -0.5662  -0.5511
 -0.5399  -0.5347  -0.5140  -0.5080  -0.4889  -0.4689  -0.4578  -0.4473
 -0.3536  -0.3420  -0.3201  -0.2685

          Ground-State Mulliken Net Atomic Charges

     Atom                 Charge (a.u.)
  ----------------------------------------
      1 C                    -0.081046
      2 C                    -0.324135
      3 C                    -0.046150
      4 H                     0.175198
      5 C                     0.081447
      6 S                    -0.179485
      7 C                    -0.278315
      8 H                     0.114987
      9 H                     0.106897
     10 H                     0.104892
     11 C                    -0.060670
     12 C                    -0.278846
     13 C                     0.045694
     14 H                     0.192098
     15 C                    -0.222577
     16 S                     0.009373
     17 C                    -0.267753
     18 H                     0.102845
     19 H                     0.107852
     20 H                     0.108499
     21 H                     0.197300
     22 H                     0.110655
     23 H                     0.107478
     24 H                     0.173762
  ----------------------------------------
  Sum of atomic charges =     0.000000

                    Cartesian Multipole Moments
 -----------------------------------------------------------------
    Charge (ESU x 10^10)
                -0.0000
    Dipole Moment (Debye)
         X      -0.8896      Y       0.6224      Z       0.7622
       Tot       1.3266
    Quadrupole Moments (Debye-Ang)
        XX     -87.2330     XY       9.3879     YY     -78.5136
        XZ       0.9229     YZ       2.0863     ZZ     -85.4800

 Total job time:  650.97s(wall), 647.74s(cpu)
        *  Thank you very much for using Q-Chem.  Have a nice day.  *
