 Q-Chem 5.4, Q-Chem, Inc., Pleasanton, CA (2021)
 Q-Chem 5.4.0 for Intel X86 EM64T Linux

User input:
--------------------------------------------------------------
$molecule
0 1
C	0.593324	-3.866725	0.498788
C	-0.469446	-3.703963	-0.393517
C	-0.817050	-2.357056	-0.685674
H	-0.998381	-4.561092	-0.837128
C	-0.000000	-1.440664	-0.000000
S	1.183149	-2.286957	0.992768
C	-1.931676	-1.978743	-1.621254
H	-2.425882	-2.878678	-2.035845
H	-1.563980	-1.376015	-2.477868
H	-2.711417	-1.375728	-1.110719
C	0.000000	0.000000	0.000000
C	0.431829	0.747884	1.099446
C	1.123799	1.946373	0.776721
H	0.247423	0.428497	2.136088
C	1.234147	2.137457	-0.612546
S	0.471221	0.816130	-1.486809
C	1.667694	2.888380	1.814609
H	1.454874	2.519768	2.836676
H	1.222009	3.901210	1.726239
H	2.767675	3.008788	1.726228
H	1.708773	2.959493	-1.161575
H	1.433894	-4.392713	0.032646
H	0.279954	-4.392347	1.407651
H	-0.694299	-1.440391	0.827254
$end

$rem
JOBTYPE		SP
EXCHANGE	HF
CORRELATION	pRIMP2
BASIS		cc-pvtz
METHOD		rimp2
AUX_BASIS	rimp2-cc-pvtz
SOLVENT_METHOD	PCM
PURECART	11111
SYMMETRY	false
MEM_TOTAL	110000
SCF_CONVERGENCE = 6
THRESH=10
$end

$solvent
dielectric 4.90
$end
--------------------------------------------------------------

   10   -1180.7453274902      5.70e-07  Convergence criterion met
 Total energy in the final basis set =    -1180.7453274902
        RIMP2         total energy =     -1182.7551611793 a.u.
 Total job time:  643.84s(wall), 640.11s(cpu)
        *  Thank you very much for using Q-Chem.  Have a nice day.  *
 Q-Chem 5.4, Q-Chem, Inc., Pleasanton, CA (2021)
 Q-Chem 5.4.0 for Intel X86 EM64T Linux

User input:
--------------------------------------------------------------
$molecule
0 1
C	0.593324	-3.866725	0.498788
C	-0.469446	-3.703963	-0.393517
C	-0.817050	-2.357056	-0.685674
H	-0.998381	-4.561092	-0.837128
C	-0.000000	-1.440664	-0.000000
S	1.183149	-2.286957	0.992768
C	-1.931676	-1.978743	-1.621254
H	-2.425882	-2.878678	-2.035845
H	-1.563980	-1.376015	-2.477868
H	-2.711417	-1.375728	-1.110719
C	0.000000	0.000000	0.000000
C	0.431829	0.747884	1.099446
C	1.123799	1.946373	0.776721
H	0.247423	0.428497	2.136088
C	1.234147	2.137457	-0.612546
S	0.471221	0.816130	-1.486809
C	1.667694	2.888380	1.814609
H	1.454874	2.519768	2.836676
H	1.222009	3.901210	1.726239
H	2.767675	3.008788	1.726228
H	1.708773	2.959493	-1.161575
H	1.433894	-4.392713	0.032646
H	0.279954	-4.392347	1.407651
H	-0.694299	-1.440391	0.827254
$end

$rem
JOBTYPE		SP
EXCHANGE	HF
CORRELATION	pRIMP2
BASIS		cc-pvtz
METHOD		rimp2
AUX_BASIS	rimp2-cc-pvtz
SOLVENT_METHOD	PCM
PURECART	11111
SYMMETRY	false
MEM_TOTAL	110000
SCF_CONVERGENCE = 6
THRESH=10
$end

$solvent
dielectric 4.90
$end
--------------------------------------------------------------

             Standard Nuclear Orientation (Angstroms)
    I     Atom           X                Y                Z
 ----------------------------------------------------------------
    1      C       0.5933240000    -3.8667250000     0.4987880000
    2      C      -0.4694460000    -3.7039630000    -0.3935170000
    3      C      -0.8170500000    -2.3570560000    -0.6856740000
    4      H      -0.9983810000    -4.5610920000    -0.8371280000
    5      C       0.0000000000    -1.4406640000     0.0000000000
    6      S       1.1831490000    -2.2869570000     0.9927680000
    7      C      -1.9316760000    -1.9787430000    -1.6212540000
    8      H      -2.4258820000    -2.8786780000    -2.0358450000
    9      H      -1.5639800000    -1.3760150000    -2.4778680000
   10      H      -2.7114170000    -1.3757280000    -1.1107190000
   11      C       0.0000000000     0.0000000000     0.0000000000
   12      C       0.4318290000     0.7478840000     1.0994460000
   13      C       1.1237990000     1.9463730000     0.7767210000
   14      H       0.2474230000     0.4284970000     2.1360880000
   15      C       1.2341470000     2.1374570000    -0.6125460000
   16      S       0.4712210000     0.8161300000    -1.4868090000
   17      C       1.6676940000     2.8883800000     1.8146090000
   18      H       1.4548740000     2.5197680000     2.8366760000
   19      H       1.2220090000     3.9012100000     1.7262390000
   20      H       2.7676750000     3.0087880000     1.7262280000
   21      H       1.7087730000     2.9594930000    -1.1615750000
   22      H       1.4338940000    -4.3927130000     0.0326460000
   23      H       0.2799540000    -4.3923470000     1.4076510000
   24      H      -0.6942990000    -1.4403910000     0.8272540000
 ----------------------------------------------------------------

   10   -1180.7453274902      5.70e-07  Convergence criterion met
 Total energy in the final basis set =    -1180.7453274902
        RIMP2         total energy =     -1182.7551611793 a.u.

                    Orbital Energies (a.u.)
 --------------------------------------------------------------

 Alpha MOs
 -- Occupied --
-91.9793 -91.9415 -11.2770 -11.2668 -11.2614 -11.2543 -11.2517 -11.2444
-11.2401 -11.2320 -11.2290 -11.2187  -8.9796  -8.9462  -6.6605  -6.6598
 -6.6593  -6.6275  -6.6265  -6.6252  -1.1994  -1.1536  -1.0582  -1.0262
 -1.0069  -0.9574  -0.9132  -0.9013  -0.8140  -0.7669  -0.7295  -0.6988
 -0.6595  -0.6415  -0.6110  -0.5878  -0.5812  -0.5746  -0.5667  -0.5516
 -0.5406  -0.5340  -0.5139  -0.5080  -0.4891  -0.4747  -0.4585  -0.4483
 -0.3547  -0.3423  -0.3194  -0.2702

          Ground-State Mulliken Net Atomic Charges

     Atom                 Charge (a.u.)
  ----------------------------------------
      1 C                    -0.079819
      2 C                    -0.322823
      3 C                    -0.043243
      4 H                     0.175922
      5 C                     0.088526
      6 S                    -0.175260
      7 C                    -0.277227
      8 H                     0.114952
      9 H                     0.106943
     10 H                     0.105448
     11 C                    -0.038512
     12 C                    -0.305292
     13 C                     0.051306
     14 H                     0.188598
     15 C                    -0.239093
     16 S                     0.007963
     17 C                    -0.269791
     18 H                     0.102702
     19 H                     0.107678
     20 H                     0.108806
     21 H                     0.196157
     22 H                     0.111574
     23 H                     0.108788
     24 H                     0.175700
  ----------------------------------------
  Sum of atomic charges =     0.000000

                    Cartesian Multipole Moments
 -----------------------------------------------------------------
    Charge (ESU x 10^10)
                -0.0000
    Dipole Moment (Debye)
         X      -1.3747      Y       0.4430      Z       0.7010
       Tot       1.6054
    Quadrupole Moments (Debye-Ang)
        XX     -89.1816     XY       8.4810     YY     -76.3956
        XZ       0.8177     YZ       2.2145     ZZ     -85.5813

 Total job time:  644.87s(wall), 641.98s(cpu)
        *  Thank you very much for using Q-Chem.  Have a nice day.  *
