 Q-Chem 5.4, Q-Chem, Inc., Pleasanton, CA (2021)
 Q-Chem 5.4.0 for Intel X86 EM64T Linux

User input:
--------------------------------------------------------------
$molecule
0 1
C	0.265779	-3.866725	-0.728138
C	-0.209225	-3.703963	0.575726
C	-0.364875	-2.357056	1.002290
H	-0.445176	-4.561092	1.224486
C	0.000000	-1.440664	0.000000
S	0.528236	-2.286957	-1.451343
C	-0.862808	-1.978743	2.369683
H	-1.083368	-2.878678	2.975883
H	-1.793522	-1.376015	2.317142
H	-0.116375	-1.375728	2.927787
C	0.000000	0.000000	0.000000
C	0.747916	0.431772	1.099446
C	1.946425	1.123709	0.776721
H	0.428523	0.247378	2.136088
C	2.137531	1.234018	-0.612546
S	0.816154	0.471179	-1.486809
C	2.888455	1.667564	1.814609
H	2.519842	1.454746	2.836676
H	3.008896	2.767543	1.726239
H	3.901271	1.221850	1.726228
H	2.959587	1.708609	-1.161575
H	-0.459743	-4.392713	-1.358585
H	1.227009	-4.392347	-0.744515
H	-1.014829	-1.440937	-0.369490
$end

$rem
JOBTYPE		SP
EXCHANGE	HF
CORRELATION	pRIMP2
BASIS		cc-pvtz
METHOD		rimp2
AUX_BASIS	rimp2-cc-pvtz
SOLVENT_METHOD	PCM
PURECART	11111
SYMMETRY	false
MEM_TOTAL	110000
SCF_CONVERGENCE = 6
THRESH=10
$end

$solvent
dielectric 4.90
$end
--------------------------------------------------------------

             Standard Nuclear Orientation (Angstroms)
    I     Atom           X                Y                Z
 ----------------------------------------------------------------
    1      C       0.2657790000    -3.8667250000    -0.7281380000
    2      C      -0.2092250000    -3.7039630000     0.5757260000
    3      C      -0.3648750000    -2.3570560000     1.0022900000
    4      H      -0.4451760000    -4.5610920000     1.2244860000
    5      C       0.0000000000    -1.4406640000     0.0000000000
    6      S       0.5282360000    -2.2869570000    -1.4513430000
    7      C      -0.8628080000    -1.9787430000     2.3696830000
    8      H      -1.0833680000    -2.8786780000     2.9758830000
    9      H      -1.7935220000    -1.3760150000     2.3171420000
   10      H      -0.1163750000    -1.3757280000     2.9277870000
   11      C       0.0000000000     0.0000000000     0.0000000000
   12      C       0.7479160000     0.4317720000     1.0994460000
   13      C       1.9464250000     1.1237090000     0.7767210000
   14      H       0.4285230000     0.2473780000     2.1360880000
   15      C       2.1375310000     1.2340180000    -0.6125460000
   16      S       0.8161540000     0.4711790000    -1.4868090000
   17      C       2.8884550000     1.6675640000     1.8146090000
   18      H       2.5198420000     1.4547460000     2.8366760000
   19      H       3.0088960000     2.7675430000     1.7262390000
   20      H       3.9012710000     1.2218500000     1.7262280000
   21      H       2.9595870000     1.7086090000    -1.1615750000
   22      H      -0.4597430000    -4.3927130000    -1.3585850000
   23      H       1.2270090000    -4.3923470000    -0.7445150000
   24      H      -1.0148290000    -1.4409370000    -0.3694900000
 ----------------------------------------------------------------

   11   -1180.6605315142      6.47e-07  Convergence criterion met
 Total energy in the final basis set =    -1180.6605315142
        RIMP2         total energy =     -1182.6884447209 a.u.

                    Orbital Energies (a.u.)
 --------------------------------------------------------------

 Alpha MOs
 -- Occupied --
-91.9802 -91.9369 -11.2849 -11.2586 -11.2565 -11.2522 -11.2493 -11.2448
-11.2325 -11.2316 -11.2303 -11.2106  -8.9813  -8.9416  -6.6620  -6.6611
 -6.6609  -6.6228  -6.6217  -6.6204  -1.2044  -1.1527  -1.0573  -1.0318
 -0.9969  -0.9668  -0.9101  -0.9012  -0.8136  -0.7581  -0.7380  -0.7082
 -0.6488  -0.6362  -0.6127  -0.5957  -0.5851  -0.5678  -0.5671  -0.5497
 -0.5430  -0.5348  -0.5177  -0.5059  -0.4821  -0.4797  -0.4457  -0.4301
 -0.3580  -0.3368  -0.3225  -0.2501

          Ground-State Mulliken Net Atomic Charges

     Atom                 Charge (a.u.)
  ----------------------------------------
      1 C                    -0.084637
      2 C                    -0.341839
      3 C                    -0.043458
      4 H                     0.171843
      5 C                     0.072984
      6 S                    -0.184131
      7 C                    -0.290450
      8 H                     0.117667
      9 H                     0.110860
     10 H                     0.096583
     11 C                    -0.162789
     12 C                    -0.126644
     13 C                    -0.025638
     14 H                     0.202436
     15 C                    -0.177291
     16 S                     0.025551
     17 C                    -0.269250
     18 H                     0.101303
     19 H                     0.107976
     20 H                     0.106008
     21 H                     0.201890
     22 H                     0.104727
     23 H                     0.106434
     24 H                     0.179864
  ----------------------------------------
  Sum of atomic charges =     0.000000

                    Cartesian Multipole Moments
 -----------------------------------------------------------------
    Charge (ESU x 10^10)
                -0.0000
    Dipole Moment (Debye)
         X       1.2052      Y       0.8821      Z       3.3930
       Tot       3.7072
    Quadrupole Moments (Debye-Ang)
        XX     -82.5083     XY       7.8189     YY     -84.8341
        XZ       0.3729     YZ      -2.2656     ZZ     -84.6856

 Total job time:  778.22s(wall), 772.52s(cpu)
        *  Thank you very much for using Q-Chem.  Have a nice day.  *
