 Q-Chem 5.4, Q-Chem, Inc., Pleasanton, CA (2021)
 Q-Chem 5.4.0 for Intel X86 EM64T Linux

User input:
--------------------------------------------------------------
$molecule
0 1
C	0.728625	-3.866725	-0.264439
C	-0.575519	-3.703963	0.209794
C	-1.002336	-2.357056	0.364749
H	-1.224165	-4.561092	0.446060
C	-0.000000	-1.440664	-0.000000
S	1.451336	-2.286957	-0.528253
C	-2.369885	-1.978743	0.862253
H	-2.976034	-2.878678	1.082953
H	-2.927887	-1.376015	0.115513
H	-2.317620	-1.375728	1.792797
C	0.000000	0.000000	0.000000
C	0.149995	0.850475	1.099446
C	0.390327	2.213354	0.776721
H	0.085947	0.487279	2.136088
C	0.428665	2.430655	-0.612546
S	0.163670	0.928078	-1.486809
C	0.579235	3.284574	1.814609
H	0.505323	2.865404	2.836676
H	-0.185980	4.083890	1.726239
H	1.571698	3.773937	1.726228
H	0.593515	3.365448	-1.161575
H	0.745219	-4.392713	-1.225465
H	1.359038	-4.392347	0.461378
H	0.369273	-1.440391	1.014907
$end

$rem
JOBTYPE		SP
EXCHANGE	HF
CORRELATION	pRIMP2
BASIS		cc-pvtz
METHOD		rimp2
AUX_BASIS	rimp2-cc-pvtz
SOLVENT_METHOD	PCM
PURECART	11111
SYMMETRY	false
MEM_TOTAL	110000
SCF_CONVERGENCE = 6
THRESH=10
$end

$solvent
dielectric 4.90
$end
--------------------------------------------------------------

   10   -1180.7617637420      5.05e-07  Convergence criterion met
 Total energy in the final basis set =    -1180.7617637420
        RIMP2         total energy =     -1182.7665622023 a.u.
 Total job time:  650.07s(wall), 644.40s(cpu)
        *  Thank you very much for using Q-Chem.  Have a nice day.  *
 Q-Chem 5.4, Q-Chem, Inc., Pleasanton, CA (2021)
 Q-Chem 5.4.0 for Intel X86 EM64T Linux

User input:
--------------------------------------------------------------
$molecule
0 1
C	0.728625	-3.866725	-0.264439
C	-0.575519	-3.703963	0.209794
C	-1.002336	-2.357056	0.364749
H	-1.224165	-4.561092	0.446060
C	-0.000000	-1.440664	-0.000000
S	1.451336	-2.286957	-0.528253
C	-2.369885	-1.978743	0.862253
H	-2.976034	-2.878678	1.082953
H	-2.927887	-1.376015	0.115513
H	-2.317620	-1.375728	1.792797
C	0.000000	0.000000	0.000000
C	0.149995	0.850475	1.099446
C	0.390327	2.213354	0.776721
H	0.085947	0.487279	2.136088
C	0.428665	2.430655	-0.612546
S	0.163670	0.928078	-1.486809
C	0.579235	3.284574	1.814609
H	0.505323	2.865404	2.836676
H	-0.185980	4.083890	1.726239
H	1.571698	3.773937	1.726228
H	0.593515	3.365448	-1.161575
H	0.745219	-4.392713	-1.225465
H	1.359038	-4.392347	0.461378
H	0.369273	-1.440391	1.014907
$end

$rem
JOBTYPE		SP
EXCHANGE	HF
CORRELATION	pRIMP2
BASIS		cc-pvtz
METHOD		rimp2
AUX_BASIS	rimp2-cc-pvtz
SOLVENT_METHOD	PCM
PURECART	11111
SYMMETRY	false
MEM_TOTAL	110000
SCF_CONVERGENCE = 6
THRESH=10
$end

$solvent
dielectric 4.90
$end
--------------------------------------------------------------

             Standard Nuclear Orientation (Angstroms)
    I     Atom           X                Y                Z
 ----------------------------------------------------------------
    1      C       0.7286250000    -3.8667250000    -0.2644390000
    2      C      -0.5755190000    -3.7039630000     0.2097940000
    3      C      -1.0023360000    -2.3570560000     0.3647490000
    4      H      -1.2241650000    -4.5610920000     0.4460600000
    5      C       0.0000000000    -1.4406640000     0.0000000000
    6      S       1.4513360000    -2.2869570000    -0.5282530000
    7      C      -2.3698850000    -1.9787430000     0.8622530000
    8      H      -2.9760340000    -2.8786780000     1.0829530000
    9      H      -2.9278870000    -1.3760150000     0.1155130000
   10      H      -2.3176200000    -1.3757280000     1.7927970000
   11      C       0.0000000000     0.0000000000     0.0000000000
   12      C       0.1499950000     0.8504750000     1.0994460000
   13      C       0.3903270000     2.2133540000     0.7767210000
   14      H       0.0859470000     0.4872790000     2.1360880000
   15      C       0.4286650000     2.4306550000    -0.6125460000
   16      S       0.1636700000     0.9280780000    -1.4868090000
   17      C       0.5792350000     3.2845740000     1.8146090000
   18      H       0.5053230000     2.8654040000     2.8366760000
   19      H      -0.1859800000     4.0838900000     1.7262390000
   20      H       1.5716980000     3.7739370000     1.7262280000
   21      H       0.5935150000     3.3654480000    -1.1615750000
   22      H       0.7452190000    -4.3927130000    -1.2254650000
   23      H       1.3590380000    -4.3923470000     0.4613780000
   24      H       0.3692730000    -1.4403910000     1.0149070000
 ----------------------------------------------------------------

   10   -1180.7617637420      5.05e-07  Convergence criterion met
 Total energy in the final basis set =    -1180.7617637420
        RIMP2         total energy =     -1182.7665622023 a.u.

                    Orbital Energies (a.u.)
 --------------------------------------------------------------

 Alpha MOs
 -- Occupied --
-91.9808 -91.9425 -11.2821 -11.2635 -11.2625 -11.2556 -11.2506 -11.2422
-11.2410 -11.2319 -11.2292 -11.2188  -8.9807  -8.9471  -6.6616  -6.6610
 -6.6605  -6.6285  -6.6274  -6.6262  -1.1985  -1.1534  -1.0582  -1.0270
 -1.0045  -0.9604  -0.9119  -0.9009  -0.8160  -0.7600  -0.7347  -0.7028
 -0.6612  -0.6418  -0.6103  -0.5893  -0.5816  -0.5706  -0.5645  -0.5513
 -0.5418  -0.5303  -0.5129  -0.5063  -0.4917  -0.4812  -0.4614  -0.4479
 -0.3564  -0.3407  -0.3147  -0.2788

          Ground-State Mulliken Net Atomic Charges

     Atom                 Charge (a.u.)
  ----------------------------------------
      1 C                    -0.075009
      2 C                    -0.328527
      3 C                    -0.031426
      4 H                     0.176089
      5 C                     0.081230
      6 S                    -0.171136
      7 C                    -0.267603
      8 H                     0.113666
      9 H                     0.108500
     10 H                     0.099340
     11 C                    -0.073303
     12 C                    -0.245529
     13 C                     0.021870
     14 H                     0.182275
     15 C                    -0.239535
     16 S                     0.007816
     17 C                    -0.272332
     18 H                     0.101660
     19 H                     0.107938
     20 H                     0.108830
     21 H                     0.196362
     22 H                     0.111524
     23 H                     0.111280
     24 H                     0.176018
  ----------------------------------------
  Sum of atomic charges =     0.000000

                    Cartesian Multipole Moments
 -----------------------------------------------------------------
    Charge (ESU x 10^10)
                -0.0000
    Dipole Moment (Debye)
         X      -1.6758      Y       0.4670      Z       3.0393
       Tot       3.5020
    Quadrupole Moments (Debye-Ang)
        XX     -91.1527     XY       4.5772     YY     -74.0579
        XZ       0.3900     YZ      -1.3973     ZZ     -86.2202

 Total job time:  656.53s(wall), 652.13s(cpu)
        *  Thank you very much for using Q-Chem.  Have a nice day.  *
