 Q-Chem 5.4, Q-Chem, Inc., Pleasanton, CA (2021)
 Q-Chem 5.4.0 for Intel X86 EM64T Linux

User input:
--------------------------------------------------------------
$molecule
0 1
C	0.671636	-3.866725	-0.386946
C	-0.530345	-3.703963	0.306544
C	-0.923770	-2.357056	0.533261
H	-1.128109	-4.561092	0.651857
C	-0.000000	-1.440664	-0.000000
S	1.337557	-2.286957	-0.772250
C	-2.184153	-1.978743	1.260680
H	-2.742769	-2.878678	1.583283
H	-2.863347	-1.376015	0.622180
H	-1.971094	-1.375728	2.168011
C	0.000000	0.000000	0.000000
C	0.555137	0.661535	1.099446
C	1.444710	1.721658	0.776721
H	0.318072	0.379023	2.136088
C	1.586563	1.890676	-0.612546
S	0.605781	0.721904	-1.486809
C	2.143920	2.554907	1.814609
H	1.870325	2.228851	2.836676
H	1.880882	3.629742	1.726239
H	3.248098	2.482476	1.726228
H	2.196723	2.617806	-1.161575
H	0.521098	-4.392713	-1.336254
H	1.418509	-4.392347	0.218374
H	-0.539900	-1.440937	-0.935365
$end

$rem
JOBTYPE		SP
EXCHANGE	HF
CORRELATION	pRIMP2
BASIS		cc-pvtz
METHOD		rimp2
AUX_BASIS	rimp2-cc-pvtz
SOLVENT_METHOD	PCM
PURECART	11111
SYMMETRY	false
MEM_TOTAL	110000
SCF_CONVERGENCE = 6
THRESH=10
$end

$solvent
dielectric 4.90
$end
--------------------------------------------------------------

             Standard Nuclear Orientation (Angstroms)
    I     Atom           X                Y                Z
 ----------------------------------------------------------------
    1      C       0.6716360000    -3.8667250000    -0.3869460000
    2      C      -0.5303450000    -3.7039630000     0.3065440000
    3      C      -0.9237700000    -2.3570560000     0.5332610000
    4      H      -1.1281090000    -4.5610920000     0.6518570000
    5      C       0.0000000000    -1.4406640000     0.0000000000
    6      S       1.3375570000    -2.2869570000    -0.7722500000
    7      C      -2.1841530000    -1.9787430000     1.2606800000
    8      H      -2.7427690000    -2.8786780000     1.5832830000
    9      H      -2.8633470000    -1.3760150000     0.6221800000
   10      H      -1.9710940000    -1.3757280000     2.1680110000
   11      C       0.0000000000     0.0000000000     0.0000000000
   12      C       0.5551370000     0.6615350000     1.0994460000
   13      C       1.4447100000     1.7216580000     0.7767210000
   14      H       0.3180720000     0.3790230000     2.1360880000
   15      C       1.5865630000     1.8906760000    -0.6125460000
   16      S       0.6057810000     0.7219040000    -1.4868090000
   17      C       2.1439200000     2.5549070000     1.8146090000
   18      H       1.8703250000     2.2288510000     2.8366760000
   19      H       1.8808820000     3.6297420000     1.7262390000
   20      H       3.2480980000     2.4824760000     1.7262280000
   21      H       2.1967230000     2.6178060000    -1.1615750000
   22      H       0.5210980000    -4.3927130000    -1.3362540000
   23      H       1.4185090000    -4.3923470000     0.2183740000
   24      H      -0.5399000000    -1.4409370000    -0.9353650000
 ----------------------------------------------------------------

   10   -1180.7262905244      6.17e-07  Convergence criterion met
 Total energy in the final basis set =    -1180.7262905244
        RIMP2         total energy =     -1182.7388593330 a.u.

                    Orbital Energies (a.u.)
 --------------------------------------------------------------

 Alpha MOs
 -- Occupied --
-91.9837 -91.9372 -11.2751 -11.2654 -11.2597 -11.2511 -11.2509 -11.2459
-11.2376 -11.2308 -11.2290 -11.2151  -8.9838  -8.9421  -6.6647  -6.6641
 -6.6636  -6.6234  -6.6224  -6.6211  -1.1990  -1.1536  -1.0572  -1.0271
 -0.9994  -0.9643  -0.9099  -0.9007  -0.8121  -0.7566  -0.7455  -0.7030
 -0.6513  -0.6312  -0.6115  -0.5875  -0.5804  -0.5713  -0.5659  -0.5524
 -0.5421  -0.5315  -0.5099  -0.5066  -0.4893  -0.4722  -0.4631  -0.4460
 -0.3562  -0.3362  -0.3174  -0.2713

          Ground-State Mulliken Net Atomic Charges

     Atom                 Charge (a.u.)
  ----------------------------------------
      1 C                    -0.080188
      2 C                    -0.327448
      3 C                    -0.046650
      4 H                     0.173718
      5 C                     0.061928
      6 S                    -0.172144
      7 C                    -0.272878
      8 H                     0.113083
      9 H                     0.103916
     10 H                     0.103231
     11 C                    -0.120302
     12 C                    -0.167141
     13 C                     0.004364
     14 H                     0.189773
     15 C                    -0.204599
     16 S                     0.011726
     17 C                    -0.269957
     18 H                     0.102041
     19 H                     0.107315
     20 H                     0.107415
     21 H                     0.200099
     22 H                     0.106780
     23 H                     0.110846
     24 H                     0.165074
  ----------------------------------------
  Sum of atomic charges =     0.000000

                    Cartesian Multipole Moments
 -----------------------------------------------------------------
    Charge (ESU x 10^10)
                -0.0000
    Dipole Moment (Debye)
         X      -0.8317      Y       0.9518      Z       2.0202
       Tot       2.3830
    Quadrupole Moments (Debye-Ang)
        XX     -87.2505     XY       9.5944     YY     -79.1184
        XZ       0.2203     YZ       0.0025     ZZ     -85.2704

 Total job time:  652.94s(wall), 649.32s(cpu)
        *  Thank you very much for using Q-Chem.  Have a nice day.  *
