 Q-Chem 5.4, Q-Chem, Inc., Pleasanton, CA (2021)
 Q-Chem 5.4.0 for Intel X86 EM64T Linux

User input:
--------------------------------------------------------------
$molecule
0 1
C	0.133897	-3.866725	0.763475
C	-0.106669	-3.703963	-0.603206
C	-0.185154	-2.357056	-1.050446
H	-0.226709	-4.561092	-1.283024
C	0.000000	-1.440664	0.000000
S	0.268206	-2.286957	1.521018
C	-0.437628	-1.978743	-2.483610
H	-0.549717	-2.878678	-3.118875
H	0.394664	-1.376015	-2.903464
H	-1.363110	-1.375728	-2.593726
C	0.000000	0.000000	0.000000
C	0.661577	0.555087	1.099446
C	1.721724	1.444630	0.776721
H	0.379056	0.318032	2.136088
C	1.890772	1.586449	-0.612546
S	0.721935	0.605744	-1.486809
C	2.555004	2.143805	1.814609
H	2.228946	1.870211	2.836676
H	2.482605	3.247987	1.726239
H	3.629830	1.880735	1.726228
H	2.617927	2.196579	-1.161575
H	1.077442	-4.392713	0.946698
H	-0.690363	-4.392347	1.258274
H	-1.063612	-1.440391	0.187427
$end

$rem
JOBTYPE		SP
EXCHANGE	HF
CORRELATION	pRIMP2
BASIS		cc-pvtz
METHOD		rimp2
AUX_BASIS	rimp2-cc-pvtz
SOLVENT_METHOD	PCM
PURECART	11111
SYMMETRY	false
MEM_TOTAL	110000
SCF_CONVERGENCE = 6
THRESH=10
$end

$solvent
dielectric 4.90
$end
--------------------------------------------------------------

             Standard Nuclear Orientation (Angstroms)
    I     Atom           X                Y                Z
 ----------------------------------------------------------------
    1      C       0.1338970000    -3.8667250000     0.7634750000
    2      C      -0.1066690000    -3.7039630000    -0.6032060000
    3      C      -0.1851540000    -2.3570560000    -1.0504460000
    4      H      -0.2267090000    -4.5610920000    -1.2830240000
    5      C       0.0000000000    -1.4406640000     0.0000000000
    6      S       0.2682060000    -2.2869570000     1.5210180000
    7      C      -0.4376280000    -1.9787430000    -2.4836100000
    8      H      -0.5497170000    -2.8786780000    -3.1188750000
    9      H       0.3946640000    -1.3760150000    -2.9034640000
   10      H      -1.3631100000    -1.3757280000    -2.5937260000
   11      C       0.0000000000     0.0000000000     0.0000000000
   12      C       0.6615770000     0.5550870000     1.0994460000
   13      C       1.7217240000     1.4446300000     0.7767210000
   14      H       0.3790560000     0.3180320000     2.1360880000
   15      C       1.8907720000     1.5864490000    -0.6125460000
   16      S       0.7219350000     0.6057440000    -1.4868090000
   17      C       2.5550040000     2.1438050000     1.8146090000
   18      H       2.2289460000     1.8702110000     2.8366760000
   19      H       2.4826050000     3.2479870000     1.7262390000
   20      H       3.6298300000     1.8807350000     1.7262280000
   21      H       2.6179270000     2.1965790000    -1.1615750000
   22      H       1.0774420000    -4.3927130000     0.9466980000
   23      H      -0.6903630000    -4.3923470000     1.2582740000
   24      H      -1.0636120000    -1.4403910000     0.1874270000
 ----------------------------------------------------------------

   11   -1180.6920530551      4.96e-07  Convergence criterion met
 Total energy in the final basis set =    -1180.6920530551
        RIMP2         total energy =     -1182.7155668499 a.u.

                    Orbital Energies (a.u.)
 --------------------------------------------------------------

 Alpha MOs
 -- Occupied --
-91.9761 -91.9409 -11.2729 -11.2651 -11.2623 -11.2515 -11.2500 -11.2491
-11.2390 -11.2289 -11.2287 -11.2146  -8.9773  -8.9457  -6.6581  -6.6573
 -6.6568  -6.6270  -6.6260  -6.6247  -1.2026  -1.1531  -1.0587  -1.0270
 -1.0069  -0.9566  -0.9130  -0.9034  -0.8101  -0.7724  -0.7228  -0.7021
 -0.6540  -0.6434  -0.6124  -0.5905  -0.5848  -0.5756  -0.5671  -0.5519
 -0.5389  -0.5349  -0.5180  -0.5128  -0.4864  -0.4586  -0.4547  -0.4390
 -0.3569  -0.3373  -0.3273  -0.2554

          Ground-State Mulliken Net Atomic Charges

     Atom                 Charge (a.u.)
  ----------------------------------------
      1 C                    -0.077520
      2 C                    -0.343024
      3 C                    -0.041184
      4 H                     0.176239
      5 C                     0.095184
      6 S                    -0.198276
      7 C                    -0.301164
      8 H                     0.116546
      9 H                     0.114578
     10 H                     0.113021
     11 C                    -0.088323
     12 C                    -0.224963
     13 C                     0.025839
     14 H                     0.188843
     15 C                    -0.221564
     16 S                     0.015411
     17 C                    -0.268388
     18 H                     0.103097
     19 H                     0.108147
     20 H                     0.107072
     21 H                     0.197184
     22 H                     0.109953
     23 H                     0.110214
     24 H                     0.183079
  ----------------------------------------
  Sum of atomic charges =     0.000000

                    Cartesian Multipole Moments
 -----------------------------------------------------------------
    Charge (ESU x 10^10)
                -0.0000
    Dipole Moment (Debye)
         X       0.6052      Y       0.4062      Z      -0.6784
       Tot       0.9957
    Quadrupole Moments (Debye-Ang)
        XX     -85.2300     XY       7.4789     YY     -81.1707
        XZ       0.3951     YZ       3.9526     ZZ     -85.1371

 Total job time:  742.29s(wall), 738.35s(cpu)
        *  Thank you very much for using Q-Chem.  Have a nice day.  *
