 Q-Chem 5.4, Q-Chem, Inc., Pleasanton, CA (2021)
 Q-Chem 5.4.0 for Intel X86 EM64T Linux

User input:
--------------------------------------------------------------
$molecule
0 1
C	0.265779	-3.866725	-0.728138
C	-0.209225	-3.703963	0.575726
C	-0.364875	-2.357056	1.002290
H	-0.445176	-4.561092	1.224486
C	-0.000000	-1.440664	-0.000000
S	0.528236	-2.286957	-1.451343
C	-0.862808	-1.978743	2.369683
H	-1.083368	-2.878678	2.975883
H	-1.793522	-1.376015	2.317142
H	-0.116375	-1.375728	2.927787
C	0.000000	0.000000	0.000000
C	0.149995	0.850475	1.099446
C	0.390327	2.213354	0.776721
H	0.085947	0.487279	2.136088
C	0.428665	2.430655	-0.612546
S	0.163670	0.928078	-1.486809
C	0.579235	3.284574	1.814609
H	0.505323	2.865404	2.836676
H	-0.185980	4.083890	1.726239
H	1.571698	3.773937	1.726228
H	0.593515	3.365448	-1.161575
H	-0.459743	-4.392713	-1.358585
H	1.227009	-4.392347	-0.744515
H	-1.014829	-1.440937	-0.369490
$end

$rem
JOBTYPE		SP
EXCHANGE	HF
CORRELATION	pRIMP2
BASIS		cc-pvtz
METHOD		rimp2
AUX_BASIS	rimp2-cc-pvtz
SOLVENT_METHOD	PCM
PURECART	11111
SYMMETRY	false
MEM_TOTAL	110000
SCF_CONVERGENCE = 6
THRESH=10
$end

$solvent
dielectric 4.90
$end
--------------------------------------------------------------

   10   -1180.7546936107      5.12e-07  Convergence criterion met
 Total energy in the final basis set =    -1180.7546936107
        RIMP2         total energy =     -1182.7605631241 a.u.
 Total job time:  665.35s(wall), 658.02s(cpu)
        *  Thank you very much for using Q-Chem.  Have a nice day.  *
 Q-Chem 5.4, Q-Chem, Inc., Pleasanton, CA (2021)
 Q-Chem 5.4.0 for Intel X86 EM64T Linux

User input:
--------------------------------------------------------------
$molecule
0 1
C	0.265779	-3.866725	-0.728138
C	-0.209225	-3.703963	0.575726
C	-0.364875	-2.357056	1.002290
H	-0.445176	-4.561092	1.224486
C	-0.000000	-1.440664	-0.000000
S	0.528236	-2.286957	-1.451343
C	-0.862808	-1.978743	2.369683
H	-1.083368	-2.878678	2.975883
H	-1.793522	-1.376015	2.317142
H	-0.116375	-1.375728	2.927787
C	0.000000	0.000000	0.000000
C	0.149995	0.850475	1.099446
C	0.390327	2.213354	0.776721
H	0.085947	0.487279	2.136088
C	0.428665	2.430655	-0.612546
S	0.163670	0.928078	-1.486809
C	0.579235	3.284574	1.814609
H	0.505323	2.865404	2.836676
H	-0.185980	4.083890	1.726239
H	1.571698	3.773937	1.726228
H	0.593515	3.365448	-1.161575
H	-0.459743	-4.392713	-1.358585
H	1.227009	-4.392347	-0.744515
H	-1.014829	-1.440937	-0.369490
$end

$rem
JOBTYPE		SP
EXCHANGE	HF
CORRELATION	pRIMP2
BASIS		cc-pvtz
METHOD		rimp2
AUX_BASIS	rimp2-cc-pvtz
SOLVENT_METHOD	PCM
PURECART	11111
SYMMETRY	false
MEM_TOTAL	110000
SCF_CONVERGENCE = 6
THRESH=10
$end

$solvent
dielectric 4.90
$end
--------------------------------------------------------------

             Standard Nuclear Orientation (Angstroms)
    I     Atom           X                Y                Z
 ----------------------------------------------------------------
    1      C       0.2657790000    -3.8667250000    -0.7281380000
    2      C      -0.2092250000    -3.7039630000     0.5757260000
    3      C      -0.3648750000    -2.3570560000     1.0022900000
    4      H      -0.4451760000    -4.5610920000     1.2244860000
    5      C       0.0000000000    -1.4406640000     0.0000000000
    6      S       0.5282360000    -2.2869570000    -1.4513430000
    7      C      -0.8628080000    -1.9787430000     2.3696830000
    8      H      -1.0833680000    -2.8786780000     2.9758830000
    9      H      -1.7935220000    -1.3760150000     2.3171420000
   10      H      -0.1163750000    -1.3757280000     2.9277870000
   11      C       0.0000000000     0.0000000000     0.0000000000
   12      C       0.1499950000     0.8504750000     1.0994460000
   13      C       0.3903270000     2.2133540000     0.7767210000
   14      H       0.0859470000     0.4872790000     2.1360880000
   15      C       0.4286650000     2.4306550000    -0.6125460000
   16      S       0.1636700000     0.9280780000    -1.4868090000
   17      C       0.5792350000     3.2845740000     1.8146090000
   18      H       0.5053230000     2.8654040000     2.8366760000
   19      H      -0.1859800000     4.0838900000     1.7262390000
   20      H       1.5716980000     3.7739370000     1.7262280000
   21      H       0.5935150000     3.3654480000    -1.1615750000
   22      H      -0.4597430000    -4.3927130000    -1.3585850000
   23      H       1.2270090000    -4.3923470000    -0.7445150000
   24      H      -1.0148290000    -1.4409370000    -0.3694900000
 ----------------------------------------------------------------

   10   -1180.7546936107      5.12e-07  Convergence criterion met
 Total energy in the final basis set =    -1180.7546936107
        RIMP2         total energy =     -1182.7605631241 a.u.

                    Orbital Energies (a.u.)
 --------------------------------------------------------------

 Alpha MOs
 -- Occupied --
-91.9839 -91.9461 -11.2881 -11.2662 -11.2604 -11.2556 -11.2499 -11.2441
-11.2341 -11.2303 -11.2280 -11.2232  -8.9836  -8.9507  -6.6646  -6.6641
 -6.6634  -6.6321  -6.6311  -6.6298  -1.2020  -1.1526  -1.0602  -1.0319
 -1.0008  -0.9625  -0.9158  -0.8996  -0.8181  -0.7628  -0.7331  -0.7044
 -0.6559  -0.6456  -0.6101  -0.5938  -0.5838  -0.5684  -0.5645  -0.5516
 -0.5464  -0.5349  -0.5215  -0.5025  -0.4875  -0.4810  -0.4691  -0.4446
 -0.3597  -0.3434  -0.3242  -0.2649

          Ground-State Mulliken Net Atomic Charges

     Atom                 Charge (a.u.)
  ----------------------------------------
      1 C                    -0.074335
      2 C                    -0.320426
      3 C                    -0.034203
      4 H                     0.178673
      5 C                     0.127626
      6 S                    -0.176059
      7 C                    -0.299551
      8 H                     0.120691
      9 H                     0.113422
     10 H                     0.104849
     11 C                    -0.081923
     12 C                    -0.253519
     13 C                     0.026764
     14 H                     0.191688
     15 C                    -0.267924
     16 S                    -0.000894
     17 C                    -0.273532
     18 H                     0.100542
     19 H                     0.108353
     20 H                     0.108766
     21 H                     0.197379
     22 H                     0.111185
     23 H                     0.114877
     24 H                     0.177549
  ----------------------------------------
  Sum of atomic charges =     0.000000

                    Cartesian Multipole Moments
 -----------------------------------------------------------------
    Charge (ESU x 10^10)
                -0.0000
    Dipole Moment (Debye)
         X      -1.3868      Y      -0.3338      Z       3.3147
       Tot       3.6086
    Quadrupole Moments (Debye-Ang)
        XX     -91.6460     XY       4.2480     YY     -73.0357
        XZ       0.2256     YZ      -1.6628     ZZ     -85.5835

 Total job time:  660.55s(wall), 655.27s(cpu)
        *  Thank you very much for using Q-Chem.  Have a nice day.  *
