 Q-Chem 5.4, Q-Chem, Inc., Pleasanton, CA (2021)
 Q-Chem 5.4.0 for Intel X86 EM64T Linux

User input:
--------------------------------------------------------------
$molecule
0 1
C	-0.497696	-3.866725	-0.594240
C	0.393981	-3.703963	0.469057
C	0.685571	-2.357056	0.817136
H	0.837848	-4.561092	0.997777
C	0.000000	-1.440664	0.000000
S	-0.992782	-2.286957	-1.183137
C	1.620802	-1.978743	1.932056
H	2.035506	-2.878678	2.426166
H	1.109943	-1.376015	2.711806
H	2.477350	-1.375728	1.564678
C	0.000000	0.000000	0.000000
C	0.747916	0.431772	1.099446
C	1.946425	1.123709	0.776721
H	0.428523	0.247378	2.136088
C	2.137531	1.234018	-0.612546
S	0.816154	0.471179	-1.486809
C	2.888455	1.667564	1.814609
H	2.519842	1.454746	2.836676
H	3.008896	2.767543	1.726239
H	3.901271	1.221850	1.726228
H	2.959587	1.708609	-1.161575
H	-1.406441	-4.392713	-0.281143
H	-0.031265	-4.392347	-1.434879
H	-0.827402	-1.440937	0.694122
$end

$rem
JOBTYPE		SP
EXCHANGE	HF
CORRELATION	pRIMP2
BASIS		cc-pvtz
METHOD		rimp2
AUX_BASIS	rimp2-cc-pvtz
SOLVENT_METHOD	PCM
PURECART	11111
SYMMETRY	false
MEM_TOTAL	110000
SCF_CONVERGENCE = 6
THRESH=10
$end

$solvent
dielectric 4.90
$end
--------------------------------------------------------------

             Standard Nuclear Orientation (Angstroms)
    I     Atom           X                Y                Z
 ----------------------------------------------------------------
    1      C      -0.4976960000    -3.8667250000    -0.5942400000
    2      C       0.3939810000    -3.7039630000     0.4690570000
    3      C       0.6855710000    -2.3570560000     0.8171360000
    4      H       0.8378480000    -4.5610920000     0.9977770000
    5      C       0.0000000000    -1.4406640000     0.0000000000
    6      S      -0.9927820000    -2.2869570000    -1.1831370000
    7      C       1.6208020000    -1.9787430000     1.9320560000
    8      H       2.0355060000    -2.8786780000     2.4261660000
    9      H       1.1099430000    -1.3760150000     2.7118060000
   10      H       2.4773500000    -1.3757280000     1.5646780000
   11      C       0.0000000000     0.0000000000     0.0000000000
   12      C       0.7479160000     0.4317720000     1.0994460000
   13      C       1.9464250000     1.1237090000     0.7767210000
   14      H       0.4285230000     0.2473780000     2.1360880000
   15      C       2.1375310000     1.2340180000    -0.6125460000
   16      S       0.8161540000     0.4711790000    -1.4868090000
   17      C       2.8884550000     1.6675640000     1.8146090000
   18      H       2.5198420000     1.4547460000     2.8366760000
   19      H       3.0088960000     2.7675430000     1.7262390000
   20      H       3.9012710000     1.2218500000     1.7262280000
   21      H       2.9595870000     1.7086090000    -1.1615750000
   22      H      -1.4064410000    -4.3927130000    -0.2811430000
   23      H      -0.0312650000    -4.3923470000    -1.4348790000
   24      H      -0.8274020000    -1.4409370000     0.6941220000
 ----------------------------------------------------------------

   11   -1180.6750448011      4.72e-07  Convergence criterion met
 Total energy in the final basis set =    -1180.6750448011
        RIMP2         total energy =     -1182.7026767815 a.u.

                    Orbital Energies (a.u.)
 --------------------------------------------------------------

 Alpha MOs
 -- Occupied --
-91.9748 -91.9353 -11.2877 -11.2623 -11.2597 -11.2532 -11.2504 -11.2495
-11.2373 -11.2322 -11.2307 -11.2141  -8.9760  -8.9401  -6.6568  -6.6558
 -6.6556  -6.6215  -6.6205  -6.6193  -1.2061  -1.1541  -1.0593  -1.0317
 -1.0002  -0.9648  -0.9124  -0.9034  -0.8095  -0.7609  -0.7387  -0.7124
 -0.6493  -0.6418  -0.6153  -0.5954  -0.5932  -0.5705  -0.5612  -0.5532
 -0.5397  -0.5324  -0.5252  -0.5102  -0.4794  -0.4665  -0.4423  -0.4401
 -0.3525  -0.3385  -0.3227  -0.2642

          Ground-State Mulliken Net Atomic Charges

     Atom                 Charge (a.u.)
  ----------------------------------------
      1 C                    -0.069123
      2 C                    -0.341350
      3 C                    -0.053236
      4 H                     0.174976
      5 C                     0.104326
      6 S                    -0.201846
      7 C                    -0.293779
      8 H                     0.120474
      9 H                     0.098338
     10 H                     0.114917
     11 C                    -0.176557
     12 C                    -0.129438
     13 C                    -0.036948
     14 H                     0.195294
     15 C                    -0.168385
     16 S                     0.017171
     17 C                    -0.281356
     18 H                     0.105910
     19 H                     0.122168
     20 H                     0.108250
     21 H                     0.200798
     22 H                     0.105756
     23 H                     0.108611
     24 H                     0.175027
  ----------------------------------------
  Sum of atomic charges =     0.000000

                    Cartesian Multipole Moments
 -----------------------------------------------------------------
    Charge (ESU x 10^10)
                -0.0000
    Dipole Moment (Debye)
         X       3.7290      Y       0.6697      Z       4.2488
       Tot       5.6926
    Quadrupole Moments (Debye-Ang)
        XX     -82.1292     XY       4.2227     YY     -83.2556
        XZ       0.8048     YZ      -3.0032     ZZ     -85.7447

 Total job time:  782.12s(wall), 777.04s(cpu)
        *  Thank you very much for using Q-Chem.  Have a nice day.  *
