 Q-Chem 5.4, Q-Chem, Inc., Pleasanton, CA (2021)
 Q-Chem 5.4.0 for Intel X86 EM64T Linux

User input:
--------------------------------------------------------------
$molecule
0 1
C	0.498788	-3.866725	-0.593324
C	-0.393517	-3.703963	0.469446
C	-0.685674	-2.357056	0.817050
H	-0.837128	-4.561092	0.998381
C	-0.000000	-1.440664	-0.000000
S	0.992768	-2.286957	-1.183149
C	-1.621254	-1.978743	1.931676
H	-2.035845	-2.878678	2.425882
H	-2.477868	-1.376015	1.563980
H	-1.110719	-1.375728	2.711417
C	0.000000	0.000000	0.000000
C	0.555137	0.661535	1.099446
C	1.444710	1.721658	0.776721
H	0.318072	0.379023	2.136088
C	1.586563	1.890676	-0.612546
S	0.605781	0.721904	-1.486809
C	2.143920	2.554907	1.814609
H	1.870325	2.228851	2.836676
H	1.880882	3.629742	1.726239
H	3.248098	2.482476	1.726228
H	2.196723	2.617806	-1.161575
H	0.032646	-4.392713	-1.433894
H	1.407651	-4.392347	-0.279954
H	-0.827254	-1.440937	-0.694299
$end

$rem
JOBTYPE		SP
EXCHANGE	HF
CORRELATION	pRIMP2
BASIS		cc-pvtz
METHOD		rimp2
AUX_BASIS	rimp2-cc-pvtz
SOLVENT_METHOD	PCM
PURECART	11111
SYMMETRY	false
MEM_TOTAL	110000
SCF_CONVERGENCE = 6
THRESH=10
$end

$solvent
dielectric 4.90
$end
--------------------------------------------------------------

             Standard Nuclear Orientation (Angstroms)
    I     Atom           X                Y                Z
 ----------------------------------------------------------------
    1      C       0.4987880000    -3.8667250000    -0.5933240000
    2      C      -0.3935170000    -3.7039630000     0.4694460000
    3      C      -0.6856740000    -2.3570560000     0.8170500000
    4      H      -0.8371280000    -4.5610920000     0.9983810000
    5      C       0.0000000000    -1.4406640000     0.0000000000
    6      S       0.9927680000    -2.2869570000    -1.1831490000
    7      C      -1.6212540000    -1.9787430000     1.9316760000
    8      H      -2.0358450000    -2.8786780000     2.4258820000
    9      H      -2.4778680000    -1.3760150000     1.5639800000
   10      H      -1.1107190000    -1.3757280000     2.7114170000
   11      C       0.0000000000     0.0000000000     0.0000000000
   12      C       0.5551370000     0.6615350000     1.0994460000
   13      C       1.4447100000     1.7216580000     0.7767210000
   14      H       0.3180720000     0.3790230000     2.1360880000
   15      C       1.5865630000     1.8906760000    -0.6125460000
   16      S       0.6057810000     0.7219040000    -1.4868090000
   17      C       2.1439200000     2.5549070000     1.8146090000
   18      H       1.8703250000     2.2288510000     2.8366760000
   19      H       1.8808820000     3.6297420000     1.7262390000
   20      H       3.2480980000     2.4824760000     1.7262280000
   21      H       2.1967230000     2.6178060000    -1.1615750000
   22      H       0.0326460000    -4.3927130000    -1.4338940000
   23      H       1.4076510000    -4.3923470000    -0.2799540000
   24      H      -0.8272540000    -1.4409370000    -0.6942990000
 ----------------------------------------------------------------

   10   -1180.7208605456      6.53e-07  Convergence criterion met
 Total energy in the final basis set =    -1180.7208605456
        RIMP2         total energy =     -1182.7351078775 a.u.

                    Orbital Energies (a.u.)
 --------------------------------------------------------------

 Alpha MOs
 -- Occupied --
-91.9831 -91.9397 -11.2716 -11.2690 -11.2612 -11.2512 -11.2508 -11.2439
-11.2376 -11.2319 -11.2290 -11.2160  -8.9833  -8.9444  -6.6642  -6.6636
 -6.6631  -6.6256  -6.6246  -6.6233  -1.1997  -1.1534  -1.0574  -1.0291
 -0.9988  -0.9647  -0.9108  -0.9006  -0.8141  -0.7573  -0.7414  -0.7039
 -0.6517  -0.6348  -0.6107  -0.5899  -0.5827  -0.5687  -0.5663  -0.5523
 -0.5433  -0.5329  -0.5145  -0.5065  -0.4868  -0.4745  -0.4632  -0.4427
 -0.3532  -0.3413  -0.3221  -0.2630

          Ground-State Mulliken Net Atomic Charges

     Atom                 Charge (a.u.)
  ----------------------------------------
      1 C                    -0.082480
      2 C                    -0.328872
      3 C                    -0.049740
      4 H                     0.174134
      5 C                     0.077177
      6 S                    -0.171661
      7 C                    -0.280884
      8 H                     0.115528
      9 H                     0.106179
     10 H                     0.102951
     11 C                    -0.112643
     12 C                    -0.185679
     13 C                     0.007501
     14 H                     0.194519
     15 C                    -0.209854
     16 S                     0.005879
     17 C                    -0.270635
     18 H                     0.101126
     19 H                     0.107746
     20 H                     0.107356
     21 H                     0.199827
     22 H                     0.107136
     23 H                     0.110870
     24 H                     0.174518
  ----------------------------------------
  Sum of atomic charges =     0.000000

                    Cartesian Multipole Moments
 -----------------------------------------------------------------
    Charge (ESU x 10^10)
                -0.0000
    Dipole Moment (Debye)
         X      -0.6178      Y       0.7285      Z       2.7372
       Tot       2.8991
    Quadrupole Moments (Debye-Ang)
        XX     -87.3106     XY       8.9644     YY     -79.0045
        XZ       0.3691     YZ      -1.1497     ZZ     -85.2314

 Total job time:  656.75s(wall), 653.11s(cpu)
        *  Thank you very much for using Q-Chem.  Have a nice day.  *
