 Q-Chem 5.4, Q-Chem, Inc., Pleasanton, CA (2021)
 Q-Chem 5.4.0 for Intel X86 EM64T Linux

User input:
--------------------------------------------------------------
$molecule
0 1
C	0.497696	-3.866725	0.594240
C	-0.393981	-3.703963	-0.469057
C	-0.685571	-2.357056	-0.817136
H	-0.837848	-4.561092	-0.997777
C	0.000000	-1.440664	0.000000
S	0.992782	-2.286957	1.183137
C	-1.620802	-1.978743	-1.932056
H	-2.035506	-2.878678	-2.426166
H	-1.109943	-1.376015	-2.711806
H	-2.477350	-1.375728	-1.564678
C	0.000000	0.000000	0.000000
C	0.661577	0.555087	1.099446
C	1.721724	1.444630	0.776721
H	0.379056	0.318032	2.136088
C	1.890772	1.586449	-0.612546
S	0.721935	0.605744	-1.486809
C	2.555004	2.143805	1.814609
H	2.228946	1.870211	2.836676
H	2.482605	3.247987	1.726239
H	3.629830	1.880735	1.726228
H	2.617927	2.196579	-1.161575
H	1.406441	-4.392713	0.281143
H	0.031265	-4.392347	1.434879
H	-0.827402	-1.440391	0.694122
$end

$rem
JOBTYPE		SP
EXCHANGE	HF
CORRELATION	pRIMP2
BASIS		cc-pvtz
METHOD		rimp2
AUX_BASIS	rimp2-cc-pvtz
SOLVENT_METHOD	PCM
PURECART	11111
SYMMETRY	false
MEM_TOTAL	110000
SCF_CONVERGENCE = 6
THRESH=10
$end

$solvent
dielectric 4.90
$end
--------------------------------------------------------------

             Standard Nuclear Orientation (Angstroms)
    I     Atom           X                Y                Z
 ----------------------------------------------------------------
    1      C       0.4976960000    -3.8667250000     0.5942400000
    2      C      -0.3939810000    -3.7039630000    -0.4690570000
    3      C      -0.6855710000    -2.3570560000    -0.8171360000
    4      H      -0.8378480000    -4.5610920000    -0.9977770000
    5      C       0.0000000000    -1.4406640000     0.0000000000
    6      S       0.9927820000    -2.2869570000     1.1831370000
    7      C      -1.6208020000    -1.9787430000    -1.9320560000
    8      H      -2.0355060000    -2.8786780000    -2.4261660000
    9      H      -1.1099430000    -1.3760150000    -2.7118060000
   10      H      -2.4773500000    -1.3757280000    -1.5646780000
   11      C       0.0000000000     0.0000000000     0.0000000000
   12      C       0.6615770000     0.5550870000     1.0994460000
   13      C       1.7217240000     1.4446300000     0.7767210000
   14      H       0.3790560000     0.3180320000     2.1360880000
   15      C       1.8907720000     1.5864490000    -0.6125460000
   16      S       0.7219350000     0.6057440000    -1.4868090000
   17      C       2.5550040000     2.1438050000     1.8146090000
   18      H       2.2289460000     1.8702110000     2.8366760000
   19      H       2.4826050000     3.2479870000     1.7262390000
   20      H       3.6298300000     1.8807350000     1.7262280000
   21      H       2.6179270000     2.1965790000    -1.1615750000
   22      H       1.4064410000    -4.3927130000     0.2811430000
   23      H       0.0312650000    -4.3923470000     1.4348790000
   24      H      -0.8274020000    -1.4403910000     0.6941220000
 ----------------------------------------------------------------

   10   -1180.7079213574      8.42e-07  Convergence criterion met
 Total energy in the final basis set =    -1180.7079213574
        RIMP2         total energy =     -1182.7271382553 a.u.

                    Orbital Energies (a.u.)
 --------------------------------------------------------------

 Alpha MOs
 -- Occupied --
-91.9773 -91.9385 -11.2778 -11.2630 -11.2589 -11.2540 -11.2529 -11.2499
-11.2374 -11.2310 -11.2298 -11.2154  -8.9782  -8.9434  -6.6590  -6.6581
 -6.6578  -6.6247  -6.6236  -6.6223  -1.2019  -1.1540  -1.0580  -1.0257
 -1.0080  -0.9565  -0.9126  -0.9022  -0.8117  -0.7688  -0.7306  -0.6970
 -0.6565  -0.6398  -0.6128  -0.5887  -0.5815  -0.5777  -0.5662  -0.5514
 -0.5392  -0.5357  -0.5157  -0.5081  -0.4882  -0.4635  -0.4553  -0.4441
 -0.3531  -0.3413  -0.3237  -0.2621

          Ground-State Mulliken Net Atomic Charges

     Atom                 Charge (a.u.)
  ----------------------------------------
      1 C                    -0.084855
      2 C                    -0.326660
      3 C                    -0.058105
      4 H                     0.174988
      5 C                     0.092785
      6 S                    -0.187402
      7 C                    -0.284242
      8 H                     0.115943
      9 H                     0.108791
     10 H                     0.105638
     11 C                    -0.101796
     12 C                    -0.225704
     13 C                     0.026378
     14 H                     0.196386
     15 C                    -0.205941
     16 S                     0.011172
     17 C                    -0.267497
     18 H                     0.103398
     19 H                     0.108640
     20 H                     0.108213
     21 H                     0.198153
     22 H                     0.109242
     23 H                     0.106861
     24 H                     0.175618
  ----------------------------------------
  Sum of atomic charges =     0.000000

                    Cartesian Multipole Moments
 -----------------------------------------------------------------
    Charge (ESU x 10^10)
                -0.0000
    Dipole Moment (Debye)
         X      -0.1902      Y       0.6725      Z       0.4360
       Tot       0.8237
    Quadrupole Moments (Debye-Ang)
        XX     -85.0029     XY       9.3859     YY     -80.9201
        XZ       0.9067     YZ       2.6075     ZZ     -85.2661

 Total job time:  664.48s(wall), 661.87s(cpu)
        *  Thank you very much for using Q-Chem.  Have a nice day.  *
