 Q-Chem 5.4, Q-Chem, Inc., Pleasanton, CA (2021)
 Q-Chem 5.4.0 for Intel X86 EM64T Linux

User input:
--------------------------------------------------------------
$molecule
0 1
C	0.593324	-3.866725	0.498788
C	-0.469446	-3.703963	-0.393517
C	-0.817050	-2.357056	-0.685674
H	-0.998381	-4.561092	-0.837128
C	0.000000	-1.440664	0.000000
S	1.183149	-2.286957	0.992768
C	-1.931676	-1.978743	-1.621254
H	-2.425882	-2.878678	-2.035845
H	-1.563980	-1.376015	-2.477868
H	-2.711417	-1.375728	-1.110719
C	0.000000	0.000000	0.000000
C	0.661577	0.555087	1.099446
C	1.721724	1.444630	0.776721
H	0.379056	0.318032	2.136088
C	1.890772	1.586449	-0.612546
S	0.721935	0.605744	-1.486809
C	2.555004	2.143805	1.814609
H	2.228946	1.870211	2.836676
H	2.482605	3.247987	1.726239
H	3.629830	1.880735	1.726228
H	2.617927	2.196579	-1.161575
H	1.433894	-4.392713	0.032646
H	0.279954	-4.392347	1.407651
H	-0.694299	-1.440391	0.827254
$end

$rem
JOBTYPE		SP
EXCHANGE	HF
CORRELATION	pRIMP2
BASIS		cc-pvtz
METHOD		rimp2
AUX_BASIS	rimp2-cc-pvtz
SOLVENT_METHOD	PCM
PURECART	11111
SYMMETRY	false
MEM_TOTAL	110000
SCF_CONVERGENCE = 6
THRESH=10
$end

$solvent
dielectric 4.90
$end
--------------------------------------------------------------

             Standard Nuclear Orientation (Angstroms)
    I     Atom           X                Y                Z
 ----------------------------------------------------------------
    1      C       0.5933240000    -3.8667250000     0.4987880000
    2      C      -0.4694460000    -3.7039630000    -0.3935170000
    3      C      -0.8170500000    -2.3570560000    -0.6856740000
    4      H      -0.9983810000    -4.5610920000    -0.8371280000
    5      C       0.0000000000    -1.4406640000     0.0000000000
    6      S       1.1831490000    -2.2869570000     0.9927680000
    7      C      -1.9316760000    -1.9787430000    -1.6212540000
    8      H      -2.4258820000    -2.8786780000    -2.0358450000
    9      H      -1.5639800000    -1.3760150000    -2.4778680000
   10      H      -2.7114170000    -1.3757280000    -1.1107190000
   11      C       0.0000000000     0.0000000000     0.0000000000
   12      C       0.6615770000     0.5550870000     1.0994460000
   13      C       1.7217240000     1.4446300000     0.7767210000
   14      H       0.3790560000     0.3180320000     2.1360880000
   15      C       1.8907720000     1.5864490000    -0.6125460000
   16      S       0.7219350000     0.6057440000    -1.4868090000
   17      C       2.5550040000     2.1438050000     1.8146090000
   18      H       2.2289460000     1.8702110000     2.8366760000
   19      H       2.4826050000     3.2479870000     1.7262390000
   20      H       3.6298300000     1.8807350000     1.7262280000
   21      H       2.6179270000     2.1965790000    -1.1615750000
   22      H       1.4338940000    -4.3927130000     0.0326460000
   23      H       0.2799540000    -4.3923470000     1.4076510000
   24      H      -0.6942990000    -1.4403910000     0.8272540000
 ----------------------------------------------------------------

   10   -1180.7122896850      7.78e-07  Convergence criterion met
 Total energy in the final basis set =    -1180.7122896850
        RIMP2         total energy =     -1182.7302480785 a.u.

                    Orbital Energies (a.u.)
 --------------------------------------------------------------

 Alpha MOs
 -- Occupied --
-91.9773 -91.9377 -11.2797 -11.2616 -11.2578 -11.2552 -11.2533 -11.2501
-11.2372 -11.2305 -11.2300 -11.2151  -8.9781  -8.9426  -6.6590  -6.6581
 -6.6578  -6.6239  -6.6228  -6.6215  -1.2016  -1.1541  -1.0578  -1.0251
 -1.0079  -0.9566  -0.9121  -0.9020  -0.8116  -0.7669  -0.7337  -0.6962
 -0.6566  -0.6388  -0.6128  -0.5891  -0.5802  -0.5771  -0.5657  -0.5505
 -0.5392  -0.5355  -0.5141  -0.5074  -0.4889  -0.4643  -0.4547  -0.4456
 -0.3525  -0.3414  -0.3213  -0.2661

          Ground-State Mulliken Net Atomic Charges

     Atom                 Charge (a.u.)
  ----------------------------------------
      1 C                    -0.083735
      2 C                    -0.324600
      3 C                    -0.054818
      4 H                     0.174498
      5 C                     0.083737
      6 S                    -0.186388
      7 C                    -0.278893
      8 H                     0.114684
      9 H                     0.106685
     10 H                     0.104248
     11 C                    -0.103694
     12 C                    -0.224611
     13 C                     0.026724
     14 H                     0.195571
     15 C                    -0.198521
     16 S                     0.011104
     17 C                    -0.266665
     18 H                     0.103315
     19 H                     0.108550
     20 H                     0.108164
     21 H                     0.198993
     22 H                     0.109599
     23 H                     0.106132
     24 H                     0.169920
  ----------------------------------------
  Sum of atomic charges =     0.000000

                    Cartesian Multipole Moments
 -----------------------------------------------------------------
    Charge (ESU x 10^10)
                -0.0000
    Dipole Moment (Debye)
         X      -0.2930      Y       0.7856      Z       0.8246
       Tot       1.1760
    Quadrupole Moments (Debye-Ang)
        XX     -84.9376     XY       9.7518     YY     -80.9698
        XZ       0.9544     YZ       1.9523     ZZ     -85.3083

 Total job time:  662.16s(wall), 659.25s(cpu)
        *  Thank you very much for using Q-Chem.  Have a nice day.  *
