 Q-Chem 5.4, Q-Chem, Inc., Pleasanton, CA (2021)
 Q-Chem 5.4.0 for Intel X86 EM64T Linux

User input:
--------------------------------------------------------------
$molecule
0 1
C	0.728625	-3.866725	-0.264439
C	-0.575519	-3.703963	0.209794
C	-1.002336	-2.357056	0.364749
H	-1.224165	-4.561092	0.446060
C	0.000000	-1.440664	0.000000
S	1.451336	-2.286957	-0.528253
C	-2.369885	-1.978743	0.862253
H	-2.976034	-2.878678	1.082953
H	-2.927887	-1.376015	0.115513
H	-2.317620	-1.375728	1.792797
C	0.000000	0.000000	0.000000
C	0.747916	0.431772	1.099446
C	1.946425	1.123709	0.776721
H	0.428523	0.247378	2.136088
C	2.137531	1.234018	-0.612546
S	0.816154	0.471179	-1.486809
C	2.888455	1.667564	1.814609
H	2.519842	1.454746	2.836676
H	3.008896	2.767543	1.726239
H	3.901271	1.221850	1.726228
H	2.959587	1.708609	-1.161575
H	0.745219	-4.392713	-1.225465
H	1.359038	-4.392347	0.461378
H	-0.369273	-1.440937	-1.014907
$end

$rem
JOBTYPE		SP
EXCHANGE	HF
CORRELATION	pRIMP2
BASIS		cc-pvtz
METHOD		rimp2
AUX_BASIS	rimp2-cc-pvtz
SOLVENT_METHOD	PCM
PURECART	11111
SYMMETRY	false
MEM_TOTAL	110000
SCF_CONVERGENCE = 6
THRESH=10
$end

$solvent
dielectric 4.90
$end
--------------------------------------------------------------

             Standard Nuclear Orientation (Angstroms)
    I     Atom           X                Y                Z
 ----------------------------------------------------------------
    1      C       0.7286250000    -3.8667250000    -0.2644390000
    2      C      -0.5755190000    -3.7039630000     0.2097940000
    3      C      -1.0023360000    -2.3570560000     0.3647490000
    4      H      -1.2241650000    -4.5610920000     0.4460600000
    5      C       0.0000000000    -1.4406640000     0.0000000000
    6      S       1.4513360000    -2.2869570000    -0.5282530000
    7      C      -2.3698850000    -1.9787430000     0.8622530000
    8      H      -2.9760340000    -2.8786780000     1.0829530000
    9      H      -2.9278870000    -1.3760150000     0.1155130000
   10      H      -2.3176200000    -1.3757280000     1.7927970000
   11      C       0.0000000000     0.0000000000     0.0000000000
   12      C       0.7479160000     0.4317720000     1.0994460000
   13      C       1.9464250000     1.1237090000     0.7767210000
   14      H       0.4285230000     0.2473780000     2.1360880000
   15      C       2.1375310000     1.2340180000    -0.6125460000
   16      S       0.8161540000     0.4711790000    -1.4868090000
   17      C       2.8884550000     1.6675640000     1.8146090000
   18      H       2.5198420000     1.4547460000     2.8366760000
   19      H       3.0088960000     2.7675430000     1.7262390000
   20      H       3.9012710000     1.2218500000     1.7262280000
   21      H       2.9595870000     1.7086090000    -1.1615750000
   22      H       0.7452190000    -4.3927130000    -1.2254650000
   23      H       1.3590380000    -4.3923470000     0.4613780000
   24      H      -0.3692730000    -1.4409370000    -1.0149070000
 ----------------------------------------------------------------

   10   -1180.6836299998      8.03e-07  Convergence criterion met
 Total energy in the final basis set =    -1180.6836299998
        RIMP2         total energy =     -1182.7048498818 a.u.

                    Orbital Energies (a.u.)
 --------------------------------------------------------------

 Alpha MOs
 -- Occupied --
-91.9809 -91.9298 -11.2906 -11.2594 -11.2551 -11.2516 -11.2486 -11.2458
-11.2343 -11.2298 -11.2286 -11.2107  -8.9820  -8.9352  -6.6627  -6.6619
 -6.6617  -6.6166  -6.6155  -6.6143  -1.2049  -1.1528  -1.0581  -1.0252
 -0.9994  -0.9650  -0.9076  -0.9012  -0.8087  -0.7568  -0.7504  -0.7035
 -0.6486  -0.6264  -0.6155  -0.5878  -0.5793  -0.5739  -0.5643  -0.5504
 -0.5407  -0.5331  -0.5055  -0.5046  -0.4886  -0.4703  -0.4560  -0.4382
 -0.3612  -0.3242  -0.3163  -0.2715

          Ground-State Mulliken Net Atomic Charges

     Atom                 Charge (a.u.)
  ----------------------------------------
      1 C                    -0.090301
      2 C                    -0.327446
      3 C                    -0.076008
      4 H                     0.172345
      5 C                     0.065365
      6 S                    -0.185959
      7 C                    -0.272355
      8 H                     0.111305
      9 H                     0.102708
     10 H                     0.102452
     11 C                    -0.178931
     12 C                    -0.076291
     13 C                    -0.025761
     14 H                     0.191541
     15 C                    -0.162023
     16 S                     0.025138
     17 C                    -0.269773
     18 H                     0.102609
     19 H                     0.107701
     20 H                     0.106501
     21 H                     0.202623
     22 H                     0.105421
     23 H                     0.109514
     24 H                     0.159624
  ----------------------------------------
  Sum of atomic charges =     0.000000

                    Cartesian Multipole Moments
 -----------------------------------------------------------------
    Charge (ESU x 10^10)
                -0.0000
    Dipole Moment (Debye)
         X       0.4233      Y       1.1022      Z       1.6958
       Tot       2.0663
    Quadrupole Moments (Debye-Ang)
        XX     -82.5611     XY       9.6597     YY     -84.5884
        XZ       0.0704     YZ       0.4530     ZZ     -84.6929

 Total job time:  701.99s(wall), 697.82s(cpu)
        *  Thank you very much for using Q-Chem.  Have a nice day.  *
