 Q-Chem 5.4, Q-Chem, Inc., Pleasanton, CA (2021)
 Q-Chem 5.4.0 for Intel X86 EM64T Linux

User input:
--------------------------------------------------------------
$molecule
0 1
C	-0.388181	-3.866725	0.670924
C	0.306020	-3.703963	-0.530648
C	0.533378	-2.357056	-0.923703
H	0.651043	-4.561092	-1.128579
C	-0.000000	-1.440664	-0.000000
S	-0.772234	-2.286957	1.337567
C	1.261192	-1.978743	-2.183857
H	1.583666	-2.878678	-2.742548
H	2.168641	-1.376015	-1.970497
H	0.623012	-1.375728	-2.863099
C	0.000000	0.000000	0.000000
C	0.365003	0.782674	1.099446
C	0.949885	2.036912	0.776721
H	0.209135	0.448431	2.136088
C	1.043159	2.236886	-0.612546
S	0.398297	0.854094	-1.486809
C	1.409609	3.022738	1.814609
H	1.229726	2.636980	2.836676
H	0.877346	3.992870	1.726239
H	2.494910	3.238558	1.726228
H	1.444334	3.097160	-1.161575
H	0.216843	-4.392713	1.417779
H	-1.337652	-4.392347	0.520136
H	0.935250	-1.440937	0.540100
$end

$rem
JOBTYPE		SP
EXCHANGE	HF
CORRELATION	pRIMP2
BASIS		cc-pvtz
METHOD		rimp2
AUX_BASIS	rimp2-cc-pvtz
SOLVENT_METHOD	PCM
PURECART	11111
SYMMETRY	false
MEM_TOTAL	110000
SCF_CONVERGENCE = 6
THRESH=10
$end

$solvent
dielectric 4.90
$end
--------------------------------------------------------------

             Standard Nuclear Orientation (Angstroms)
    I     Atom           X                Y                Z
 ----------------------------------------------------------------
    1      C      -0.3881810000    -3.8667250000     0.6709240000
    2      C       0.3060200000    -3.7039630000    -0.5306480000
    3      C       0.5333780000    -2.3570560000    -0.9237030000
    4      H       0.6510430000    -4.5610920000    -1.1285790000
    5      C       0.0000000000    -1.4406640000     0.0000000000
    6      S      -0.7722340000    -2.2869570000     1.3375670000
    7      C       1.2611920000    -1.9787430000    -2.1838570000
    8      H       1.5836660000    -2.8786780000    -2.7425480000
    9      H       2.1686410000    -1.3760150000    -1.9704970000
   10      H       0.6230120000    -1.3757280000    -2.8630990000
   11      C       0.0000000000     0.0000000000     0.0000000000
   12      C       0.3650030000     0.7826740000     1.0994460000
   13      C       0.9498850000     2.0369120000     0.7767210000
   14      H       0.2091350000     0.4484310000     2.1360880000
   15      C       1.0431590000     2.2368860000    -0.6125460000
   16      S       0.3982970000     0.8540940000    -1.4868090000
   17      C       1.4096090000     3.0227380000     1.8146090000
   18      H       1.2297260000     2.6369800000     2.8366760000
   19      H       0.8773460000     3.9928700000     1.7262390000
   20      H       2.4949100000     3.2385580000     1.7262280000
   21      H       1.4443340000     3.0971600000    -1.1615750000
   22      H       0.2168430000    -4.3927130000     1.4177790000
   23      H      -1.3376520000    -4.3923470000     0.5201360000
   24      H       0.9352500000    -1.4409370000     0.5401000000
 ----------------------------------------------------------------

   10   -1180.7417446577      5.22e-07  Convergence criterion met
 Total energy in the final basis set =    -1180.7417446577
        RIMP2         total energy =     -1182.7526712605 a.u.

                    Orbital Energies (a.u.)
 --------------------------------------------------------------

 Alpha MOs
 -- Occupied --
-91.9816 -91.9431 -11.2857 -11.2646 -11.2586 -11.2573 -11.2504 -11.2425
-11.2329 -11.2306 -11.2281 -11.2207  -8.9817  -8.9479  -6.6626  -6.6620
 -6.6614  -6.6293  -6.6282  -6.6270  -1.2024  -1.1522  -1.0600  -1.0268
 -1.0073  -0.9559  -0.9138  -0.9021  -0.8119  -0.7705  -0.7227  -0.7008
 -0.6632  -0.6448  -0.6107  -0.5859  -0.5819  -0.5737  -0.5684  -0.5538
 -0.5424  -0.5321  -0.5153  -0.5111  -0.4918  -0.4754  -0.4556  -0.4462
 -0.3564  -0.3419  -0.3230  -0.2641

          Ground-State Mulliken Net Atomic Charges

     Atom                 Charge (a.u.)
  ----------------------------------------
      1 C                    -0.073445
      2 C                    -0.321247
      3 C                    -0.037923
      4 H                     0.178320
      5 C                     0.065255
      6 S                    -0.182868
      7 C                    -0.291589
      8 H                     0.114143
      9 H                     0.114413
     10 H                     0.109226
     11 C                    -0.015173
     12 C                    -0.282476
     13 C                     0.033179
     14 H                     0.181974
     15 C                    -0.263814
     16 S                     0.011090
     17 C                    -0.270435
     18 H                     0.102768
     19 H                     0.108484
     20 H                     0.106958
     21 H                     0.196555
     22 H                     0.110369
     23 H                     0.113189
     24 H                     0.193049
  ----------------------------------------
  Sum of atomic charges =     0.000000

                    Cartesian Multipole Moments
 -----------------------------------------------------------------
    Charge (ESU x 10^10)
                -0.0000
    Dipole Moment (Debye)
         X       2.6686      Y      -0.1607      Z      -0.4185
       Tot       2.7060
    Quadrupole Moments (Debye-Ang)
        XX     -90.0982     XY       0.8450     YY     -75.9749
        XZ       0.4787     YZ       3.2603     ZZ     -85.3622

 Total job time:  660.42s(wall), 656.17s(cpu)
        *  Thank you very much for using Q-Chem.  Have a nice day.  *
