 Q-Chem 5.4, Q-Chem, Inc., Pleasanton, CA (2021)
 Q-Chem 5.4.0 for Intel X86 EM64T Linux

User input:
--------------------------------------------------------------
$molecule
0 1
C	0.763475	-3.866725	-0.133897
C	-0.603206	-3.703963	0.106669
C	-1.050446	-2.357056	0.185154
H	-1.283024	-4.561092	0.226709
C	0.000000	-1.440664	0.000000
S	1.521018	-2.286957	-0.268206
C	-2.483610	-1.978743	0.437628
H	-3.118875	-2.878678	0.549717
H	-2.903464	-1.376015	-0.394664
H	-2.593726	-1.375728	1.363110
C	0.000000	0.000000	0.000000
C	0.295399	0.811508	1.099446
C	0.768742	2.111949	0.776721
H	0.169256	0.464952	2.136088
C	0.844232	2.319291	-0.612546
S	0.322342	0.885558	-1.486809
C	1.140796	3.134091	1.814609
H	0.995218	2.734123	2.836676
H	0.526006	4.054142	1.726239
H	2.203157	3.443680	1.726228
H	1.168902	3.211257	-1.161575
H	0.946698	-4.392713	-1.077442
H	1.258274	-4.392347	0.690363
H	-0.187427	-1.440937	-1.063612
$end

$rem
JOBTYPE		SP
EXCHANGE	HF
CORRELATION	pRIMP2
BASIS		cc-pvtz
METHOD		rimp2
AUX_BASIS	rimp2-cc-pvtz
SOLVENT_METHOD	PCM
PURECART	11111
SYMMETRY	false
MEM_TOTAL	110000
SCF_CONVERGENCE = 6
THRESH=10
$end

$solvent
dielectric 4.90
$end
--------------------------------------------------------------

   10   -1180.7527855771      5.21e-07  Convergence criterion met
 Total energy in the final basis set =    -1180.7527855771
        RIMP2         total energy =     -1182.7587269131 a.u.
 Total job time:  681.44s(wall), 677.82s(cpu)
        *  Thank you very much for using Q-Chem.  Have a nice day.  *
 Q-Chem 5.4, Q-Chem, Inc., Pleasanton, CA (2021)
 Q-Chem 5.4.0 for Intel X86 EM64T Linux

User input:
--------------------------------------------------------------
$molecule
0 1
C	0.763475	-3.866725	-0.133897
C	-0.603206	-3.703963	0.106669
C	-1.050446	-2.357056	0.185154
H	-1.283024	-4.561092	0.226709
C	0.000000	-1.440664	0.000000
S	1.521018	-2.286957	-0.268206
C	-2.483610	-1.978743	0.437628
H	-3.118875	-2.878678	0.549717
H	-2.903464	-1.376015	-0.394664
H	-2.593726	-1.375728	1.363110
C	0.000000	0.000000	0.000000
C	0.295399	0.811508	1.099446
C	0.768742	2.111949	0.776721
H	0.169256	0.464952	2.136088
C	0.844232	2.319291	-0.612546
S	0.322342	0.885558	-1.486809
C	1.140796	3.134091	1.814609
H	0.995218	2.734123	2.836676
H	0.526006	4.054142	1.726239
H	2.203157	3.443680	1.726228
H	1.168902	3.211257	-1.161575
H	0.946698	-4.392713	-1.077442
H	1.258274	-4.392347	0.690363
H	-0.187427	-1.440937	-1.063612
$end

$rem
JOBTYPE		SP
EXCHANGE	HF
CORRELATION	pRIMP2
BASIS		cc-pvtz
METHOD		rimp2
AUX_BASIS	rimp2-cc-pvtz
SOLVENT_METHOD	PCM
PURECART	11111
SYMMETRY	false
MEM_TOTAL	110000
SCF_CONVERGENCE = 6
THRESH=10
$end

$solvent
dielectric 4.90
$end
--------------------------------------------------------------

             Standard Nuclear Orientation (Angstroms)
    I     Atom           X                Y                Z
 ----------------------------------------------------------------
    1      C       0.7634750000    -3.8667250000    -0.1338970000
    2      C      -0.6032060000    -3.7039630000     0.1066690000
    3      C      -1.0504460000    -2.3570560000     0.1851540000
    4      H      -1.2830240000    -4.5610920000     0.2267090000
    5      C       0.0000000000    -1.4406640000     0.0000000000
    6      S       1.5210180000    -2.2869570000    -0.2682060000
    7      C      -2.4836100000    -1.9787430000     0.4376280000
    8      H      -3.1188750000    -2.8786780000     0.5497170000
    9      H      -2.9034640000    -1.3760150000    -0.3946640000
   10      H      -2.5937260000    -1.3757280000     1.3631100000
   11      C       0.0000000000     0.0000000000     0.0000000000
   12      C       0.2953990000     0.8115080000     1.0994460000
   13      C       0.7687420000     2.1119490000     0.7767210000
   14      H       0.1692560000     0.4649520000     2.1360880000
   15      C       0.8442320000     2.3192910000    -0.6125460000
   16      S       0.3223420000     0.8855580000    -1.4868090000
   17      C       1.1407960000     3.1340910000     1.8146090000
   18      H       0.9952180000     2.7341230000     2.8366760000
   19      H       0.5260060000     4.0541420000     1.7262390000
   20      H       2.2031570000     3.4436800000     1.7262280000
   21      H       1.1689020000     3.2112570000    -1.1615750000
   22      H       0.9466980000    -4.3927130000    -1.0774420000
   23      H       1.2582740000    -4.3923470000     0.6903630000
   24      H      -0.1874270000    -1.4409370000    -1.0636120000
 ----------------------------------------------------------------

   10   -1180.7527855771      5.21e-07  Convergence criterion met
 Total energy in the final basis set =    -1180.7527855771
        RIMP2         total energy =     -1182.7587269131 a.u.

                    Orbital Energies (a.u.)
 --------------------------------------------------------------

 Alpha MOs
 -- Occupied --
-91.9859 -91.9405 -11.2753 -11.2677 -11.2616 -11.2541 -11.2508 -11.2402
-11.2401 -11.2313 -11.2287 -11.2176  -8.9856  -8.9452  -6.6665  -6.6659
 -6.6653  -6.6265  -6.6255  -6.6242  -1.1980  -1.1536  -1.0582  -1.0266
 -1.0017  -0.9630  -0.9122  -0.9003  -0.8128  -0.7608  -0.7427  -0.7029
 -0.6532  -0.6330  -0.6109  -0.5873  -0.5783  -0.5721  -0.5674  -0.5536
 -0.5425  -0.5302  -0.5105  -0.5064  -0.4905  -0.4798  -0.4640  -0.4484
 -0.3572  -0.3389  -0.3122  -0.2811

          Ground-State Mulliken Net Atomic Charges

     Atom                 Charge (a.u.)
  ----------------------------------------
      1 C                    -0.073985
      2 C                    -0.325798
      3 C                    -0.037473
      4 H                     0.175460
      5 C                     0.092412
      6 S                    -0.172344
      7 C                    -0.268286
      8 H                     0.112334
      9 H                     0.102993
     10 H                     0.104144
     11 C                    -0.101956
     12 C                    -0.222388
     13 C                     0.024844
     14 H                     0.184515
     15 C                    -0.238127
     16 S                     0.014792
     17 C                    -0.271521
     18 H                     0.102756
     19 H                     0.107320
     20 H                     0.108192
     21 H                     0.198859
     22 H                     0.109123
     23 H                     0.111973
     24 H                     0.162160
  ----------------------------------------
  Sum of atomic charges =     0.000000

                    Cartesian Multipole Moments
 -----------------------------------------------------------------
    Charge (ESU x 10^10)
                -0.0000
    Dipole Moment (Debye)
         X      -1.7864      Y       0.7863      Z       1.1689
       Tot       2.2751
    Quadrupole Moments (Debye-Ang)
        XX     -90.5420     XY       7.3356     YY     -75.0506
        XZ       0.0175     YZ       1.5578     ZZ     -85.7185

 Total job time:  642.37s(wall), 640.13s(cpu)
        *  Thank you very much for using Q-Chem.  Have a nice day.  *
