 Q-Chem 5.4, Q-Chem, Inc., Pleasanton, CA (2021)
 Q-Chem 5.4.0 for Intel X86 EM64T Linux

User input:
--------------------------------------------------------------
$molecule
0 1
C	-0.497696	-3.866725	-0.594240
C	0.393981	-3.703963	0.469057
C	0.685571	-2.357056	0.817136
H	0.837848	-4.561092	0.997777
C	0.000000	-1.440664	0.000000
S	-0.992782	-2.286957	-1.183137
C	1.620802	-1.978743	1.932056
H	2.035506	-2.878678	2.426166
H	1.109943	-1.376015	2.711806
H	2.477350	-1.375728	1.564678
C	0.000000	0.000000	0.000000
C	0.747916	0.431772	1.099446
C	1.946425	1.123709	0.776721
H	0.428523	0.247378	2.136088
C	2.137531	1.234018	-0.612546
S	0.816154	0.471179	-1.486809
C	2.888455	1.667564	1.814609
H	2.519842	1.454746	2.836676
H	3.008896	2.767543	1.726239
H	3.901271	1.221850	1.726228
H	2.959587	1.708609	-1.161575
H	-1.406441	-4.392713	-0.281143
H	-0.031265	-4.392347	-1.434879
H	0.827402	-1.440391	-0.694122
$end

$rem
JOBTYPE		SP
EXCHANGE	HF
CORRELATION	pRIMP2
BASIS		cc-pvtz
METHOD		rimp2
AUX_BASIS	rimp2-cc-pvtz
SOLVENT_METHOD	PCM
PURECART	11111
SYMMETRY	false
MEM_TOTAL	110000
SCF_CONVERGENCE = 6
THRESH=10
$end

$solvent
dielectric 4.90
$end
--------------------------------------------------------------

             Standard Nuclear Orientation (Angstroms)
    I     Atom           X                Y                Z
 ----------------------------------------------------------------
    1      C      -0.4976960000    -3.8667250000    -0.5942400000
    2      C       0.3939810000    -3.7039630000     0.4690570000
    3      C       0.6855710000    -2.3570560000     0.8171360000
    4      H       0.8378480000    -4.5610920000     0.9977770000
    5      C       0.0000000000    -1.4406640000     0.0000000000
    6      S      -0.9927820000    -2.2869570000    -1.1831370000
    7      C       1.6208020000    -1.9787430000     1.9320560000
    8      H       2.0355060000    -2.8786780000     2.4261660000
    9      H       1.1099430000    -1.3760150000     2.7118060000
   10      H       2.4773500000    -1.3757280000     1.5646780000
   11      C       0.0000000000     0.0000000000     0.0000000000
   12      C       0.7479160000     0.4317720000     1.0994460000
   13      C       1.9464250000     1.1237090000     0.7767210000
   14      H       0.4285230000     0.2473780000     2.1360880000
   15      C       2.1375310000     1.2340180000    -0.6125460000
   16      S       0.8161540000     0.4711790000    -1.4868090000
   17      C       2.8884550000     1.6675640000     1.8146090000
   18      H       2.5198420000     1.4547460000     2.8366760000
   19      H       3.0088960000     2.7675430000     1.7262390000
   20      H       3.9012710000     1.2218500000     1.7262280000
   21      H       2.9595870000     1.7086090000    -1.1615750000
   22      H      -1.4064410000    -4.3927130000    -0.2811430000
   23      H      -0.0312650000    -4.3923470000    -1.4348790000
   24      H       0.8274020000    -1.4403910000    -0.6941220000
 ----------------------------------------------------------------

   10   -1180.6697386132      9.60e-07  Convergence criterion met
 Total energy in the final basis set =    -1180.6697386132
        RIMP2         total energy =     -1182.6971758279 a.u.

                    Orbital Energies (a.u.)
 --------------------------------------------------------------

 Alpha MOs
 -- Occupied --
-91.9744 -91.9332 -11.2867 -11.2607 -11.2599 -11.2584 -11.2539 -11.2505
-11.2376 -11.2324 -11.2309 -11.2154  -8.9764  -8.9385  -6.6572  -6.6563
 -6.6560  -6.6199  -6.6189  -6.6177  -1.2125  -1.1537  -1.0624  -1.0329
 -0.9976  -0.9681  -0.9133  -0.9026  -0.8057  -0.7614  -0.7517  -0.7119
 -0.6475  -0.6398  -0.6145  -0.5961  -0.5830  -0.5756  -0.5661  -0.5545
 -0.5449  -0.5346  -0.5260  -0.5102  -0.4810  -0.4685  -0.4480  -0.4383
 -0.3516  -0.3437  -0.3254  -0.2609

          Ground-State Mulliken Net Atomic Charges

     Atom                 Charge (a.u.)
  ----------------------------------------
      1 C                    -0.069487
      2 C                    -0.338887
      3 C                    -0.042315
      4 H                     0.175564
      5 C                     0.102085
      6 S                    -0.212607
      7 C                    -0.293533
      8 H                     0.119187
      9 H                     0.103656
     10 H                     0.108200
     11 C                    -0.138113
     12 C                    -0.140728
     13 C                    -0.032664
     14 H                     0.191354
     15 C                    -0.177364
     16 S                    -0.002560
     17 C                    -0.281226
     18 H                     0.106205
     19 H                     0.123193
     20 H                     0.109111
     21 H                     0.202599
     22 H                     0.109884
     23 H                     0.107314
     24 H                     0.171132
  ----------------------------------------
  Sum of atomic charges =     0.000000

                    Cartesian Multipole Moments
 -----------------------------------------------------------------
    Charge (ESU x 10^10)
                -0.0000
    Dipole Moment (Debye)
         X       4.7716      Y       0.4980      Z       3.4010
       Tot       5.8807
    Quadrupole Moments (Debye-Ang)
        XX     -82.7604     XY       2.1517     YY     -83.2009
        XZ       0.4928     YZ      -1.2326     ZZ     -85.2755

 Total job time:  735.85s(wall), 733.29s(cpu)
        *  Thank you very much for using Q-Chem.  Have a nice day.  *
