 Q-Chem 5.4, Q-Chem, Inc., Pleasanton, CA (2021)
 Q-Chem 5.4.0 for Intel X86 EM64T Linux

User input:
--------------------------------------------------------------
$molecule
0 1
C	0.265779	-3.866725	-0.728138
C	-0.209225	-3.703963	0.575726
C	-0.364875	-2.357056	1.002290
H	-0.445176	-4.561092	1.224486
C	-0.000000	-1.440664	-0.000000
S	0.528236	-2.286957	-1.451343
C	-0.862808	-1.978743	2.369683
H	-1.083368	-2.878678	2.975883
H	-1.793522	-1.376015	2.317142
H	-0.116375	-1.375728	2.927787
C	0.000000	0.000000	0.000000
C	0.365003	0.782674	1.099446
C	0.949885	2.036912	0.776721
H	0.209135	0.448431	2.136088
C	1.043159	2.236886	-0.612546
S	0.398297	0.854094	-1.486809
C	1.409609	3.022738	1.814609
H	1.229726	2.636980	2.836676
H	0.877346	3.992870	1.726239
H	2.494910	3.238558	1.726228
H	1.444334	3.097160	-1.161575
H	-0.459743	-4.392713	-1.358585
H	1.227009	-4.392347	-0.744515
H	1.014829	-1.440391	0.369490
$end

$rem
JOBTYPE		SP
EXCHANGE	HF
CORRELATION	pRIMP2
BASIS		cc-pvtz
METHOD		rimp2
AUX_BASIS	rimp2-cc-pvtz
SOLVENT_METHOD	PCM
PURECART	11111
SYMMETRY	false
MEM_TOTAL	110000
SCF_CONVERGENCE = 6
THRESH=10
$end

$solvent
dielectric 4.90
$end
--------------------------------------------------------------

             Standard Nuclear Orientation (Angstroms)
    I     Atom           X                Y                Z
 ----------------------------------------------------------------
    1      C       0.2657790000    -3.8667250000    -0.7281380000
    2      C      -0.2092250000    -3.7039630000     0.5757260000
    3      C      -0.3648750000    -2.3570560000     1.0022900000
    4      H      -0.4451760000    -4.5610920000     1.2244860000
    5      C       0.0000000000    -1.4406640000     0.0000000000
    6      S       0.5282360000    -2.2869570000    -1.4513430000
    7      C      -0.8628080000    -1.9787430000     2.3696830000
    8      H      -1.0833680000    -2.8786780000     2.9758830000
    9      H      -1.7935220000    -1.3760150000     2.3171420000
   10      H      -0.1163750000    -1.3757280000     2.9277870000
   11      C       0.0000000000     0.0000000000     0.0000000000
   12      C       0.3650030000     0.7826740000     1.0994460000
   13      C       0.9498850000     2.0369120000     0.7767210000
   14      H       0.2091350000     0.4484310000     2.1360880000
   15      C       1.0431590000     2.2368860000    -0.6125460000
   16      S       0.3982970000     0.8540940000    -1.4868090000
   17      C       1.4096090000     3.0227380000     1.8146090000
   18      H       1.2297260000     2.6369800000     2.8366760000
   19      H       0.8773460000     3.9928700000     1.7262390000
   20      H       2.4949100000     3.2385580000     1.7262280000
   21      H       1.4443340000     3.0971600000    -1.1615750000
   22      H      -0.4597430000    -4.3927130000    -1.3585850000
   23      H       1.2270090000    -4.3923470000    -0.7445150000
   24      H       1.0148290000    -1.4403910000     0.3694900000
 ----------------------------------------------------------------

   10   -1180.7450757261      5.06e-07  Convergence criterion met
 Total energy in the final basis set =    -1180.7450757261
        RIMP2         total energy =     -1182.7544042493 a.u.

                    Orbital Energies (a.u.)
 --------------------------------------------------------------

 Alpha MOs
 -- Occupied --
-91.9846 -91.9443 -11.2879 -11.2646 -11.2601 -11.2555 -11.2507 -11.2426
-11.2340 -11.2297 -11.2284 -11.2227  -8.9842  -8.9490  -6.6652  -6.6646
 -6.6640  -6.6303  -6.6293  -6.6280  -1.2033  -1.1524  -1.0601  -1.0318
 -1.0008  -0.9614  -0.9148  -0.8999  -0.8173  -0.7621  -0.7265  -0.7050
 -0.6615  -0.6478  -0.6108  -0.5923  -0.5862  -0.5696  -0.5594  -0.5542
 -0.5433  -0.5350  -0.5211  -0.5035  -0.4861  -0.4809  -0.4691  -0.4408
 -0.3600  -0.3442  -0.3231  -0.2624

          Ground-State Mulliken Net Atomic Charges

     Atom                 Charge (a.u.)
  ----------------------------------------
      1 C                    -0.078729
      2 C                    -0.307258
      3 C                    -0.065433
      4 H                     0.177162
      5 C                     0.100103
      6 S                    -0.181373
      7 C                    -0.295890
      8 H                     0.120021
      9 H                     0.117110
     10 H                     0.099803
     11 C                    -0.019827
     12 C                    -0.290263
     13 C                     0.042605
     14 H                     0.183802
     15 C                    -0.277286
     16 S                     0.012727
     17 C                    -0.271376
     18 H                     0.100722
     19 H                     0.108753
     20 H                     0.107799
     21 H                     0.197271
     22 H                     0.110805
     23 H                     0.112283
     24 H                     0.196467
  ----------------------------------------
  Sum of atomic charges =     0.000000

                    Cartesian Multipole Moments
 -----------------------------------------------------------------
    Charge (ESU x 10^10)
                -0.0000
    Dipole Moment (Debye)
         X       0.6208      Y      -0.3949      Z       3.8520
       Tot       3.9217
    Quadrupole Moments (Debye-Ang)
        XX     -89.6667     XY       3.5812     YY     -75.1400
        XZ       0.1729     YZ      -2.9066     ZZ     -85.8734

 Total job time:  659.70s(wall), 656.25s(cpu)
        *  Thank you very much for using Q-Chem.  Have a nice day.  *
