 Q-Chem 5.4, Q-Chem, Inc., Pleasanton, CA (2021)
 Q-Chem 5.4.0 for Intel X86 EM64T Linux

User input:
--------------------------------------------------------------
$molecule
0 1
C	-0.763228	-3.866725	-0.135301
C	0.603311	-3.703963	0.106073
C	1.050423	-2.357056	0.185286
H	1.283188	-4.561092	0.225783
C	0.000000	-1.440664	0.000000
S	-1.521021	-2.286957	-0.268187
C	2.483507	-1.978743	0.438209
H	3.118798	-2.878678	0.550153
H	2.593381	-1.376015	1.363906
H	2.903516	-1.375728	-0.393798
C	0.000000	0.000000	0.000000
C	0.223548	0.834165	1.099446
C	0.581748	2.170912	0.776721
H	0.128089	0.477934	2.136088
C	0.638880	2.384045	-0.612546
S	0.243934	0.910282	-1.486809
C	0.863301	3.221592	1.814609
H	0.753137	2.810458	2.836676
H	0.170663	4.084559	1.726239
H	1.894637	3.622593	1.726228
H	0.884575	3.300913	-1.161575
H	-1.258111	-4.392713	0.688674
H	-0.946272	-4.392347	-1.079084
H	0.187654	-1.440391	-1.063572
$end

$rem
JOBTYPE		SP
EXCHANGE	HF
CORRELATION	pRIMP2
BASIS		cc-pvtz
METHOD		rimp2
AUX_BASIS	rimp2-cc-pvtz
SOLVENT_METHOD	PCM
PURECART	11111
SYMMETRY	false
MEM_TOTAL	110000
SCF_CONVERGENCE = 6
THRESH=10
$end

$solvent
dielectric 4.90
$end
--------------------------------------------------------------

             Standard Nuclear Orientation (Angstroms)
    I     Atom           X                Y                Z
 ----------------------------------------------------------------
    1      C      -0.7632280000    -3.8667250000    -0.1353010000
    2      C       0.6033110000    -3.7039630000     0.1060730000
    3      C       1.0504230000    -2.3570560000     0.1852860000
    4      H       1.2831880000    -4.5610920000     0.2257830000
    5      C       0.0000000000    -1.4406640000     0.0000000000
    6      S      -1.5210210000    -2.2869570000    -0.2681870000
    7      C       2.4835070000    -1.9787430000     0.4382090000
    8      H       3.1187980000    -2.8786780000     0.5501530000
    9      H       2.5933810000    -1.3760150000     1.3639060000
   10      H       2.9035160000    -1.3757280000    -0.3937980000
   11      C       0.0000000000     0.0000000000     0.0000000000
   12      C       0.2235480000     0.8341650000     1.0994460000
   13      C       0.5817480000     2.1709120000     0.7767210000
   14      H       0.1280890000     0.4779340000     2.1360880000
   15      C       0.6388800000     2.3840450000    -0.6125460000
   16      S       0.2439340000     0.9102820000    -1.4868090000
   17      C       0.8633010000     3.2215920000     1.8146090000
   18      H       0.7531370000     2.8104580000     2.8366760000
   19      H       0.1706630000     4.0845590000     1.7262390000
   20      H       1.8946370000     3.6225930000     1.7262280000
   21      H       0.8845750000     3.3009130000    -1.1615750000
   22      H      -1.2581110000    -4.3927130000     0.6886740000
   23      H      -0.9462720000    -4.3923470000    -1.0790840000
   24      H       0.1876540000    -1.4403910000    -1.0635720000
 ----------------------------------------------------------------

   10   -1180.7549556457      5.09e-07  Convergence criterion met
 Total energy in the final basis set =    -1180.7549556457
        RIMP2         total energy =     -1182.7605056239 a.u.

                    Orbital Energies (a.u.)
 --------------------------------------------------------------

 Alpha MOs
 -- Occupied --
-91.9860 -91.9396 -11.2773 -11.2669 -11.2627 -11.2545 -11.2512 -11.2402
-11.2400 -11.2312 -11.2291 -11.2189  -8.9858  -8.9443  -6.6667  -6.6662
 -6.6655  -6.6257  -6.6247  -6.6234  -1.1983  -1.1538  -1.0587  -1.0259
 -1.0025  -0.9637  -0.9126  -0.9005  -0.8120  -0.7618  -0.7433  -0.7041
 -0.6532  -0.6336  -0.6112  -0.5874  -0.5763  -0.5728  -0.5693  -0.5542
 -0.5431  -0.5292  -0.5157  -0.5053  -0.4910  -0.4783  -0.4641  -0.4474
 -0.3554  -0.3422  -0.3135  -0.2801

          Ground-State Mulliken Net Atomic Charges

     Atom                 Charge (a.u.)
  ----------------------------------------
      1 C                    -0.078020
      2 C                    -0.330190
      3 C                    -0.009238
      4 H                     0.176013
      5 C                     0.088120
      6 S                    -0.180449
      7 C                    -0.267510
      8 H                     0.114262
      9 H                     0.105068
     10 H                     0.104592
     11 C                    -0.094658
     12 C                    -0.242750
     13 C                     0.028121
     14 H                     0.187201
     15 C                    -0.244342
     16 S                     0.013134
     17 C                    -0.272121
     18 H                     0.102819
     19 H                     0.108577
     20 H                     0.107387
     21 H                     0.199272
     22 H                     0.112760
     23 H                     0.109865
     24 H                     0.162088
  ----------------------------------------
  Sum of atomic charges =     0.000000

                    Cartesian Multipole Moments
 -----------------------------------------------------------------
    Charge (ESU x 10^10)
                -0.0000
    Dipole Moment (Debye)
         X       3.0777      Y       0.7759      Z       1.1760
       Tot       3.3849
    Quadrupole Moments (Debye-Ang)
        XX     -91.2393     XY      -1.1605     YY     -74.4579
        XZ       0.5265     YZ       1.6086     ZZ     -85.7524

 Total job time:  651.64s(wall), 649.03s(cpu)
        *  Thank you very much for using Q-Chem.  Have a nice day.  *
