 Q-Chem 5.4, Q-Chem, Inc., Pleasanton, CA (2021)
 Q-Chem 5.4.0 for Intel X86 EM64T Linux

User input:
--------------------------------------------------------------
$molecule
0 1
C	-0.728138	-3.866725	-0.265779
C	0.575726	-3.703963	0.209225
C	1.002290	-2.357056	0.364875
H	1.224486	-4.561092	0.445176
C	0.000000	-1.440664	0.000000
S	-1.451343	-2.286957	-0.528236
C	2.369683	-1.978743	0.862808
H	2.975883	-2.878678	1.083368
H	2.317142	-1.376015	1.793522
H	2.927787	-1.375728	0.116375
C	0.000000	0.000000	0.000000
C	0.223548	0.834165	1.099446
C	0.581748	2.170912	0.776721
H	0.128089	0.477934	2.136088
C	0.638880	2.384045	-0.612546
S	0.243934	0.910282	-1.486809
C	0.863301	3.221592	1.814609
H	0.753137	2.810458	2.836676
H	0.170663	4.084559	1.726239
H	1.894637	3.622593	1.726228
H	0.884575	3.300913	-1.161575
H	-1.358585	-4.392713	0.459743
H	-0.744515	-4.392347	-1.227009
H	0.369490	-1.440391	-1.014829
$end

$rem
JOBTYPE		SP
EXCHANGE	HF
CORRELATION	pRIMP2
BASIS		cc-pvtz
METHOD		rimp2
AUX_BASIS	rimp2-cc-pvtz
SOLVENT_METHOD	PCM
PURECART	11111
SYMMETRY	false
MEM_TOTAL	110000
SCF_CONVERGENCE = 6
THRESH=10
$end

$solvent
dielectric 4.90
$end
--------------------------------------------------------------

             Standard Nuclear Orientation (Angstroms)
    I     Atom           X                Y                Z
 ----------------------------------------------------------------
    1      C      -0.7281380000    -3.8667250000    -0.2657790000
    2      C       0.5757260000    -3.7039630000     0.2092250000
    3      C       1.0022900000    -2.3570560000     0.3648750000
    4      H       1.2244860000    -4.5610920000     0.4451760000
    5      C       0.0000000000    -1.4406640000     0.0000000000
    6      S      -1.4513430000    -2.2869570000    -0.5282360000
    7      C       2.3696830000    -1.9787430000     0.8628080000
    8      H       2.9758830000    -2.8786780000     1.0833680000
    9      H       2.3171420000    -1.3760150000     1.7935220000
   10      H       2.9277870000    -1.3757280000     0.1163750000
   11      C       0.0000000000     0.0000000000     0.0000000000
   12      C       0.2235480000     0.8341650000     1.0994460000
   13      C       0.5817480000     2.1709120000     0.7767210000
   14      H       0.1280890000     0.4779340000     2.1360880000
   15      C       0.6388800000     2.3840450000    -0.6125460000
   16      S       0.2439340000     0.9102820000    -1.4868090000
   17      C       0.8633010000     3.2215920000     1.8146090000
   18      H       0.7531370000     2.8104580000     2.8366760000
   19      H       0.1706630000     4.0845590000     1.7262390000
   20      H       1.8946370000     3.6225930000     1.7262280000
   21      H       0.8845750000     3.3009130000    -1.1615750000
   22      H      -1.3585850000    -4.3927130000     0.4597430000
   23      H      -0.7445150000    -4.3923470000    -1.2270090000
   24      H       0.3694900000    -1.4403910000    -1.0148290000
 ----------------------------------------------------------------

   10   -1180.7550992985      5.09e-07  Convergence criterion met
 Total energy in the final basis set =    -1180.7550992985
        RIMP2         total energy =     -1182.7605394061 a.u.

                    Orbital Energies (a.u.)
 --------------------------------------------------------------

 Alpha MOs
 -- Occupied --
-91.9851 -91.9398 -11.2785 -11.2660 -11.2631 -11.2548 -11.2510 -11.2404
-11.2398 -11.2314 -11.2291 -11.2193  -8.9849  -8.9446  -6.6658  -6.6653
 -6.6647  -6.6260  -6.6250  -6.6237  -1.1987  -1.1537  -1.0589  -1.0265
 -1.0020  -0.9638  -0.9126  -0.9004  -0.8124  -0.7609  -0.7440  -0.7037
 -0.6532  -0.6347  -0.6111  -0.5879  -0.5770  -0.5720  -0.5686  -0.5545
 -0.5435  -0.5298  -0.5161  -0.5058  -0.4901  -0.4783  -0.4638  -0.4479
 -0.3555  -0.3425  -0.3156  -0.2774

          Ground-State Mulliken Net Atomic Charges

     Atom                 Charge (a.u.)
  ----------------------------------------
      1 C                    -0.076984
      2 C                    -0.328402
      3 C                    -0.013123
      4 H                     0.176458
      5 C                     0.089748
      6 S                    -0.180574
      7 C                    -0.268952
      8 H                     0.114945
      9 H                     0.104127
     10 H                     0.106164
     11 C                    -0.089378
     12 C                    -0.251162
     13 C                     0.028835
     14 H                     0.189435
     15 C                    -0.244364
     16 S                     0.011420
     17 C                    -0.272202
     18 H                     0.102531
     19 H                     0.108820
     20 H                     0.107526
     21 H                     0.199054
     22 H                     0.112836
     23 H                     0.109749
     24 H                     0.163493
  ----------------------------------------
  Sum of atomic charges =     0.000000

                    Cartesian Multipole Moments
 -----------------------------------------------------------------
    Charge (ESU x 10^10)
                -0.0000
    Dipole Moment (Debye)
         X       3.0848      Y       0.6700      Z       1.6185
       Tot       3.5474
    Quadrupole Moments (Debye-Ang)
        XX     -91.3182     XY      -1.2318     YY     -74.4044
        XZ       0.4725     YZ       0.9625     ZZ     -85.7029

 Total job time:  652.01s(wall), 649.31s(cpu)
        *  Thank you very much for using Q-Chem.  Have a nice day.  *
