 Q-Chem 5.4, Q-Chem, Inc., Pleasanton, CA (2021)
 Q-Chem 5.4.0 for Intel X86 EM64T Linux

User input:
--------------------------------------------------------------
$molecule
0 1
C	0.135301	-3.866725	-0.763228
C	-0.106073	-3.703963	0.603311
C	-0.185286	-2.357056	1.050423
H	-0.225783	-4.561092	1.283188
C	0.000000	-1.440664	0.000000
S	0.268187	-2.286957	-1.521021
C	-0.438209	-1.978743	2.483507
H	-0.550153	-2.878678	3.118798
H	-1.363906	-1.376015	2.593381
H	0.393798	-1.375728	2.903516
C	0.000000	0.000000	0.000000
C	0.747916	0.431772	1.099446
C	1.946425	1.123709	0.776721
H	0.428523	0.247378	2.136088
C	2.137531	1.234018	-0.612546
S	0.816154	0.471179	-1.486809
C	2.888455	1.667564	1.814609
H	2.519842	1.454746	2.836676
H	3.008896	2.767543	1.726239
H	3.901271	1.221850	1.726228
H	2.959587	1.708609	-1.161575
H	-0.688674	-4.392713	-1.258111
H	1.079084	-4.392347	-0.946272
H	1.063572	-1.440391	0.187654
$end

$rem
JOBTYPE		SP
EXCHANGE	HF
CORRELATION	pRIMP2
BASIS		cc-pvtz
METHOD		rimp2
AUX_BASIS	rimp2-cc-pvtz
SOLVENT_METHOD	PCM
PURECART	11111
SYMMETRY	false
MEM_TOTAL	110000
SCF_CONVERGENCE = 6
THRESH=10
$end

$solvent
dielectric 4.90
$end
--------------------------------------------------------------

             Standard Nuclear Orientation (Angstroms)
    I     Atom           X                Y                Z
 ----------------------------------------------------------------
    1      C       0.1353010000    -3.8667250000    -0.7632280000
    2      C      -0.1060730000    -3.7039630000     0.6033110000
    3      C      -0.1852860000    -2.3570560000     1.0504230000
    4      H      -0.2257830000    -4.5610920000     1.2831880000
    5      C       0.0000000000    -1.4406640000     0.0000000000
    6      S       0.2681870000    -2.2869570000    -1.5210210000
    7      C      -0.4382090000    -1.9787430000     2.4835070000
    8      H      -0.5501530000    -2.8786780000     3.1187980000
    9      H      -1.3639060000    -1.3760150000     2.5933810000
   10      H       0.3937980000    -1.3757280000     2.9035160000
   11      C       0.0000000000     0.0000000000     0.0000000000
   12      C       0.7479160000     0.4317720000     1.0994460000
   13      C       1.9464250000     1.1237090000     0.7767210000
   14      H       0.4285230000     0.2473780000     2.1360880000
   15      C       2.1375310000     1.2340180000    -0.6125460000
   16      S       0.8161540000     0.4711790000    -1.4868090000
   17      C       2.8884550000     1.6675640000     1.8146090000
   18      H       2.5198420000     1.4547460000     2.8366760000
   19      H       3.0088960000     2.7675430000     1.7262390000
   20      H       3.9012710000     1.2218500000     1.7262280000
   21      H       2.9595870000     1.7086090000    -1.1615750000
   22      H      -0.6886740000    -4.3927130000    -1.2581110000
   23      H       1.0790840000    -4.3923470000    -0.9462720000
   24      H       1.0635720000    -1.4403910000     0.1876540000
 ----------------------------------------------------------------

   11   -1180.6680063868      7.30e-07  Convergence criterion met
 Total energy in the final basis set =    -1180.6680063868
        RIMP2         total energy =     -1182.6988016840 a.u.

                    Orbital Energies (a.u.)
 --------------------------------------------------------------

 Alpha MOs
 -- Occupied --
-91.9832 -91.9358 -11.2812 -11.2641 -11.2588 -11.2547 -11.2536 -11.2443
-11.2359 -11.2321 -11.2308 -11.2180  -8.9841  -8.9409  -6.6648  -6.6640
 -6.6637  -6.6222  -6.6210  -6.6198  -1.2128  -1.1527  -1.0610  -1.0342
 -0.9983  -0.9638  -0.9124  -0.9025  -0.8130  -0.7611  -0.7320  -0.7067
 -0.6622  -0.6456  -0.6119  -0.5974  -0.5851  -0.5715  -0.5597  -0.5526
 -0.5422  -0.5366  -0.5235  -0.5058  -0.4864  -0.4779  -0.4521  -0.4281
 -0.3641  -0.3392  -0.3210  -0.2544

          Ground-State Mulliken Net Atomic Charges

     Atom                 Charge (a.u.)
  ----------------------------------------
      1 C                    -0.086322
      2 C                    -0.307756
      3 C                    -0.067641
      4 H                     0.173831
      5 C                     0.109486
      6 S                    -0.188585
      7 C                    -0.285840
      8 H                     0.116684
      9 H                     0.114505
     10 H                     0.094909
     11 C                    -0.121979
     12 C                    -0.185006
     13 C                    -0.003084
     14 H                     0.190562
     15 C                    -0.217993
     16 S                     0.047705
     17 C                    -0.268425
     18 H                     0.102350
     19 H                     0.109262
     20 H                     0.105281
     21 H                     0.201652
     22 H                     0.109157
     23 H                     0.107633
     24 H                     0.149615
  ----------------------------------------
  Sum of atomic charges =     0.000000

                    Cartesian Multipole Moments
 -----------------------------------------------------------------
    Charge (ESU x 10^10)
                -0.0000
    Dipole Moment (Debye)
         X       2.7102      Y       0.1355      Z       3.7908
       Tot       4.6620
    Quadrupole Moments (Debye-Ang)
        XX     -82.6350     XY       4.5956     YY     -82.8495
        XZ      -0.0390     YZ      -3.5775     ZZ     -85.0891

 Total job time:  780.93s(wall), 778.31s(cpu)
        *  Thank you very much for using Q-Chem.  Have a nice day.  *
