 Q-Chem 5.4, Q-Chem, Inc., Pleasanton, CA (2021)
 Q-Chem 5.4.0 for Intel X86 EM64T Linux

User input:
--------------------------------------------------------------
$molecule
0 1
C	-0.265779	-3.866725	0.728138
C	0.209225	-3.703963	-0.575726
C	0.364875	-2.357056	-1.002290
H	0.445176	-4.561092	-1.224486
C	-0.000000	-1.440664	-0.000000
S	-0.528236	-2.286957	1.451343
C	0.862808	-1.978743	-2.369683
H	1.083368	-2.878678	-2.975883
H	1.793522	-1.376015	-2.317142
H	0.116375	-1.375728	-2.927787
C	0.000000	0.000000	0.000000
C	0.555137	0.661535	1.099446
C	1.444710	1.721658	0.776721
H	0.318072	0.379023	2.136088
C	1.586563	1.890676	-0.612546
S	0.605781	0.721904	-1.486809
C	2.143920	2.554907	1.814609
H	1.870325	2.228851	2.836676
H	1.880882	3.629742	1.726239
H	3.248098	2.482476	1.726228
H	2.196723	2.617806	-1.161575
H	0.459743	-4.392713	1.358585
H	-1.227009	-4.392347	0.744515
H	-1.014829	-1.440391	-0.369490
$end

$rem
JOBTYPE		SP
EXCHANGE	HF
CORRELATION	pRIMP2
BASIS		cc-pvtz
METHOD		rimp2
AUX_BASIS	rimp2-cc-pvtz
SOLVENT_METHOD	PCM
PURECART	11111
SYMMETRY	false
MEM_TOTAL	110000
SCF_CONVERGENCE = 6
THRESH=10
$end

$solvent
dielectric 4.90
$end
--------------------------------------------------------------

             Standard Nuclear Orientation (Angstroms)
    I     Atom           X                Y                Z
 ----------------------------------------------------------------
    1      C      -0.2657790000    -3.8667250000     0.7281380000
    2      C       0.2092250000    -3.7039630000    -0.5757260000
    3      C       0.3648750000    -2.3570560000    -1.0022900000
    4      H       0.4451760000    -4.5610920000    -1.2244860000
    5      C       0.0000000000    -1.4406640000     0.0000000000
    6      S      -0.5282360000    -2.2869570000     1.4513430000
    7      C       0.8628080000    -1.9787430000    -2.3696830000
    8      H       1.0833680000    -2.8786780000    -2.9758830000
    9      H       1.7935220000    -1.3760150000    -2.3171420000
   10      H       0.1163750000    -1.3757280000    -2.9277870000
   11      C       0.0000000000     0.0000000000     0.0000000000
   12      C       0.5551370000     0.6615350000     1.0994460000
   13      C       1.4447100000     1.7216580000     0.7767210000
   14      H       0.3180720000     0.3790230000     2.1360880000
   15      C       1.5865630000     1.8906760000    -0.6125460000
   16      S       0.6057810000     0.7219040000    -1.4868090000
   17      C       2.1439200000     2.5549070000     1.8146090000
   18      H       1.8703250000     2.2288510000     2.8366760000
   19      H       1.8808820000     3.6297420000     1.7262390000
   20      H       3.2480980000     2.4824760000     1.7262280000
   21      H       2.1967230000     2.6178060000    -1.1615750000
   22      H       0.4597430000    -4.3927130000     1.3585850000
   23      H      -1.2270090000    -4.3923470000     0.7445150000
   24      H      -1.0148290000    -1.4403910000    -0.3694900000
 ----------------------------------------------------------------

   10   -1180.7082601650      7.74e-07  Convergence criterion met
 Total energy in the final basis set =    -1180.7082601650
        RIMP2         total energy =     -1182.7276150819 a.u.

                    Orbital Energies (a.u.)
 --------------------------------------------------------------

 Alpha MOs
 -- Occupied --
-91.9778 -91.9420 -11.2718 -11.2673 -11.2643 -11.2533 -11.2495 -11.2409
-11.2408 -11.2287 -11.2279 -11.2165  -8.9789  -8.9466  -6.6597  -6.6590
 -6.6585  -6.6280  -6.6270  -6.6258  -1.2012  -1.1525  -1.0591  -1.0261
 -1.0058  -0.9578  -0.9132  -0.9030  -0.8089  -0.7717  -0.7215  -0.7073
 -0.6520  -0.6425  -0.6111  -0.5938  -0.5819  -0.5726  -0.5678  -0.5495
 -0.5404  -0.5312  -0.5173  -0.5164  -0.4877  -0.4645  -0.4543  -0.4407
 -0.3552  -0.3375  -0.3249  -0.2604

          Ground-State Mulliken Net Atomic Charges

     Atom                 Charge (a.u.)
  ----------------------------------------
      1 C                    -0.069369
      2 C                    -0.337165
      3 C                    -0.041918
      4 H                     0.177541
      5 C                     0.075292
      6 S                    -0.196861
      7 C                    -0.284854
      8 H                     0.113002
      9 H                     0.119151
     10 H                     0.104052
     11 C                    -0.081363
     12 C                    -0.214377
     13 C                     0.019220
     14 H                     0.186296
     15 C                    -0.234790
     16 S                     0.012378
     17 C                    -0.269882
     18 H                     0.102629
     19 H                     0.107592
     20 H                     0.106002
     21 H                     0.198515
     22 H                     0.111078
     23 H                     0.109987
     24 H                     0.187845
  ----------------------------------------
  Sum of atomic charges =     0.000000

                    Cartesian Multipole Moments
 -----------------------------------------------------------------
    Charge (ESU x 10^10)
                -0.0000
    Dipole Moment (Debye)
         X       1.5058      Y       0.3102      Z      -1.2839
       Tot       2.0030
    Quadrupole Moments (Debye-Ang)
        XX     -86.9803     XY       5.4009     YY     -79.1651
        XZ      -0.0379     YZ       4.4220     ZZ     -85.5434

 Total job time:  710.26s(wall), 706.34s(cpu)
        *  Thank you very much for using Q-Chem.  Have a nice day.  *
