 Q-Chem 5.4, Q-Chem, Inc., Pleasanton, CA (2021)
 Q-Chem 5.4.0 for Intel X86 EM64T Linux

User input:
--------------------------------------------------------------
$molecule
0 1
C	-0.594240	-3.866725	0.497696
C	0.469057	-3.703963	-0.393981
C	0.817136	-2.357056	-0.685571
H	0.997777	-4.561092	-0.837848
C	0.000000	-1.440664	0.000000
S	-1.183137	-2.286957	0.992782
C	1.932056	-1.978743	-1.620802
H	2.426166	-2.878678	-2.035506
H	2.711806	-1.376015	-1.109943
H	1.564678	-1.375728	-2.477350
C	0.000000	0.000000	0.000000
C	0.223548	0.834165	1.099446
C	0.581748	2.170912	0.776721
H	0.128089	0.477934	2.136088
C	0.638880	2.384045	-0.612546
S	0.243934	0.910282	-1.486809
C	0.863301	3.221592	1.814609
H	0.753137	2.810458	2.836676
H	0.170663	4.084559	1.726239
H	1.894637	3.622593	1.726228
H	0.884575	3.300913	-1.161575
H	-0.281143	-4.392713	1.406441
H	-1.434879	-4.392347	0.031265
H	-0.694122	-1.440391	-0.827402
$end

$rem
JOBTYPE		SP
EXCHANGE	HF
CORRELATION	pRIMP2
BASIS		cc-pvtz
METHOD		rimp2
AUX_BASIS	rimp2-cc-pvtz
SOLVENT_METHOD	PCM
PURECART	11111
SYMMETRY	false
MEM_TOTAL	110000
SCF_CONVERGENCE = 6
THRESH=10
$end

$solvent
dielectric 4.90
$end
--------------------------------------------------------------

             Standard Nuclear Orientation (Angstroms)
    I     Atom           X                Y                Z
 ----------------------------------------------------------------
    1      C      -0.5942400000    -3.8667250000     0.4976960000
    2      C       0.4690570000    -3.7039630000    -0.3939810000
    3      C       0.8171360000    -2.3570560000    -0.6855710000
    4      H       0.9977770000    -4.5610920000    -0.8378480000
    5      C       0.0000000000    -1.4406640000     0.0000000000
    6      S      -1.1831370000    -2.2869570000     0.9927820000
    7      C       1.9320560000    -1.9787430000    -1.6208020000
    8      H       2.4261660000    -2.8786780000    -2.0355060000
    9      H       2.7118060000    -1.3760150000    -1.1099430000
   10      H       1.5646780000    -1.3757280000    -2.4773500000
   11      C       0.0000000000     0.0000000000     0.0000000000
   12      C       0.2235480000     0.8341650000     1.0994460000
   13      C       0.5817480000     2.1709120000     0.7767210000
   14      H       0.1280890000     0.4779340000     2.1360880000
   15      C       0.6388800000     2.3840450000    -0.6125460000
   16      S       0.2439340000     0.9102820000    -1.4868090000
   17      C       0.8633010000     3.2215920000     1.8146090000
   18      H       0.7531370000     2.8104580000     2.8366760000
   19      H       0.1706630000     4.0845590000     1.7262390000
   20      H       1.8946370000     3.6225930000     1.7262280000
   21      H       0.8845750000     3.3009130000    -1.1615750000
   22      H      -0.2811430000    -4.3927130000     1.4064410000
   23      H      -1.4348790000    -4.3923470000     0.0312650000
   24      H      -0.6941220000    -1.4403910000    -0.8274020000
 ----------------------------------------------------------------

   10   -1180.7532510169      5.09e-07  Convergence criterion met
 Total energy in the final basis set =    -1180.7532510169
        RIMP2         total energy =     -1182.7600722568 a.u.

                    Orbital Energies (a.u.)
 --------------------------------------------------------------

 Alpha MOs
 -- Occupied --
-91.9845 -91.9429 -11.2810 -11.2639 -11.2633 -11.2567 -11.2506 -11.2415
-11.2367 -11.2305 -11.2283 -11.2200  -8.9844  -8.9474  -6.6653  -6.6648
 -6.6642  -6.6288  -6.6278  -6.6265  -1.1994  -1.1533  -1.0594  -1.0252
 -1.0054  -0.9605  -0.9137  -0.9011  -0.8123  -0.7689  -0.7299  -0.7052
 -0.6542  -0.6379  -0.6107  -0.5912  -0.5769  -0.5739  -0.5697  -0.5530
 -0.5422  -0.5309  -0.5147  -0.5072  -0.4901  -0.4796  -0.4611  -0.4464
 -0.3556  -0.3426  -0.3196  -0.2729

          Ground-State Mulliken Net Atomic Charges

     Atom                 Charge (a.u.)
  ----------------------------------------
      1 C                    -0.074051
      2 C                    -0.327362
      3 C                    -0.033922
      4 H                     0.177208
      5 C                     0.100790
      6 S                    -0.177392
      7 C                    -0.277898
      8 H                     0.114946
      9 H                     0.114445
     10 H                     0.103579
     11 C                    -0.103256
     12 C                    -0.231199
     13 C                     0.021405
     14 H                     0.187467
     15 C                    -0.241396
     16 S                     0.006560
     17 C                    -0.271866
     18 H                     0.102987
     19 H                     0.108068
     20 H                     0.107594
     21 H                     0.197740
     22 H                     0.111655
     23 H                     0.111568
     24 H                     0.172329
  ----------------------------------------
  Sum of atomic charges =     0.000000

                    Cartesian Multipole Moments
 -----------------------------------------------------------------
    Charge (ESU x 10^10)
                -0.0000
    Dipole Moment (Debye)
         X       1.8570      Y       0.4062      Z      -0.7515
       Tot       2.0440
    Quadrupole Moments (Debye-Ang)
        XX     -90.7116     XY       0.9550     YY     -74.2621
        XZ       0.1192     YZ       4.3203     ZZ     -86.1379

 Total job time:  653.85s(wall), 646.69s(cpu)
        *  Thank you very much for using Q-Chem.  Have a nice day.  *
