 Q-Chem 5.4, Q-Chem, Inc., Pleasanton, CA (2021)
 Q-Chem 5.4.0 for Intel X86 EM64T Linux

User input:
--------------------------------------------------------------
$molecule
0 1
C	-0.388181	-3.866725	0.670924
C	0.306020	-3.703963	-0.530648
C	0.533378	-2.357056	-0.923703
H	0.651043	-4.561092	-1.128579
C	0.000000	-1.440664	0.000000
S	-0.772234	-2.286957	1.337567
C	1.261192	-1.978743	-2.183857
H	1.583666	-2.878678	-2.742548
H	2.168641	-1.376015	-1.970497
H	0.623012	-1.375728	-2.863099
C	0.000000	0.000000	0.000000
C	0.223548	0.834165	1.099446
C	0.581748	2.170912	0.776721
H	0.128089	0.477934	2.136088
C	0.638880	2.384045	-0.612546
S	0.243934	0.910282	-1.486809
C	0.863301	3.221592	1.814609
H	0.753137	2.810458	2.836676
H	0.170663	4.084559	1.726239
H	1.894637	3.622593	1.726228
H	0.884575	3.300913	-1.161575
H	0.216843	-4.392713	1.417779
H	-1.337652	-4.392347	0.520136
H	-0.935250	-1.440391	-0.540100
$end

$rem
JOBTYPE		SP
EXCHANGE	HF
CORRELATION	pRIMP2
BASIS		cc-pvtz
METHOD		rimp2
AUX_BASIS	rimp2-cc-pvtz
SOLVENT_METHOD	PCM
PURECART	11111
SYMMETRY	false
MEM_TOTAL	110000
SCF_CONVERGENCE = 6
THRESH=10
$end

$solvent
dielectric 4.90
$end
--------------------------------------------------------------

             Standard Nuclear Orientation (Angstroms)
    I     Atom           X                Y                Z
 ----------------------------------------------------------------
    1      C      -0.3881810000    -3.8667250000     0.6709240000
    2      C       0.3060200000    -3.7039630000    -0.5306480000
    3      C       0.5333780000    -2.3570560000    -0.9237030000
    4      H       0.6510430000    -4.5610920000    -1.1285790000
    5      C       0.0000000000    -1.4406640000     0.0000000000
    6      S      -0.7722340000    -2.2869570000     1.3375670000
    7      C       1.2611920000    -1.9787430000    -2.1838570000
    8      H       1.5836660000    -2.8786780000    -2.7425480000
    9      H       2.1686410000    -1.3760150000    -1.9704970000
   10      H       0.6230120000    -1.3757280000    -2.8630990000
   11      C       0.0000000000     0.0000000000     0.0000000000
   12      C       0.2235480000     0.8341650000     1.0994460000
   13      C       0.5817480000     2.1709120000     0.7767210000
   14      H       0.1280890000     0.4779340000     2.1360880000
   15      C       0.6388800000     2.3840450000    -0.6125460000
   16      S       0.2439340000     0.9102820000    -1.4868090000
   17      C       0.8633010000     3.2215920000     1.8146090000
   18      H       0.7531370000     2.8104580000     2.8366760000
   19      H       0.1706630000     4.0845590000     1.7262390000
   20      H       1.8946370000     3.6225930000     1.7262280000
   21      H       0.8845750000     3.3009130000    -1.1615750000
   22      H       0.2168430000    -4.3927130000     1.4177790000
   23      H      -1.3376520000    -4.3923470000     0.5201360000
   24      H      -0.9352500000    -1.4403910000    -0.5401000000
 ----------------------------------------------------------------

   10   -1180.7511589183      5.01e-07  Convergence criterion met
 Total energy in the final basis set =    -1180.7511589183
        RIMP2         total energy =     -1182.7586934271 a.u.

                    Orbital Energies (a.u.)
 --------------------------------------------------------------

 Alpha MOs
 -- Occupied --
-91.9820 -91.9449 -11.2849 -11.2655 -11.2589 -11.2587 -11.2497 -11.2430
-11.2338 -11.2314 -11.2276 -11.2214  -8.9821  -8.9493  -6.6631  -6.6625
 -6.6618  -6.6307  -6.6297  -6.6285  -1.2010  -1.1526  -1.0602  -1.0267
 -1.0060  -0.9585  -0.9149  -0.9015  -0.8133  -0.7711  -0.7232  -0.7055
 -0.6553  -0.6434  -0.6106  -0.5933  -0.5799  -0.5723  -0.5688  -0.5527
 -0.5419  -0.5324  -0.5150  -0.5103  -0.4893  -0.4801  -0.4588  -0.4455
 -0.3573  -0.3417  -0.3238  -0.2674

          Ground-State Mulliken Net Atomic Charges

     Atom                 Charge (a.u.)
  ----------------------------------------
      1 C                    -0.072876
      2 C                    -0.323940
      3 C                    -0.047687
      4 H                     0.178313
      5 C                     0.126489
      6 S                    -0.181745
      7 C                    -0.291570
      8 H                     0.116466
      9 H                     0.119588
     10 H                     0.103537
     11 C                    -0.079595
     12 C                    -0.251913
     13 C                     0.023631
     14 H                     0.184827
     15 C                    -0.251024
     16 S                    -0.000811
     17 C                    -0.272264
     18 H                     0.102739
     19 H                     0.108107
     20 H                     0.107675
     21 H                     0.197319
     22 H                     0.112178
     23 H                     0.112870
     24 H                     0.179684
  ----------------------------------------
  Sum of atomic charges =     0.000000

                    Cartesian Multipole Moments
 -----------------------------------------------------------------
    Charge (ESU x 10^10)
                -0.0000
    Dipole Moment (Debye)
         X       0.9548      Y      -0.0361      Z      -1.1667
       Tot       1.5080
    Quadrupole Moments (Debye-Ang)
        XX     -90.7561     XY       2.1185     YY     -74.0862
        XZ      -0.1584     YZ       4.7811     ZZ     -85.9538

 Total job time:  658.15s(wall), 652.48s(cpu)
        *  Thank you very much for using Q-Chem.  Have a nice day.  *
