 Q-Chem 5.4, Q-Chem, Inc., Pleasanton, CA (2021)
 Q-Chem 5.4.0 for Intel X86 EM64T Linux

User input:
--------------------------------------------------------------
$molecule
0 1
C	-0.497696	-3.866725	-0.594240
C	0.393981	-3.703963	0.469057
C	0.685571	-2.357056	0.817136
H	0.837848	-4.561092	0.997777
C	-0.000000	-1.440664	-0.000000
S	-0.992782	-2.286957	-1.183137
C	1.620802	-1.978743	1.932056
H	2.035506	-2.878678	2.426166
H	1.109943	-1.376015	2.711806
H	2.477350	-1.375728	1.564678
C	0.000000	0.000000	0.000000
C	0.075300	0.860311	1.099446
C	0.195935	2.238951	0.776721
H	0.043151	0.492916	2.136088
C	0.215188	2.458766	-0.612546
S	0.082160	0.938811	-1.486809
C	0.290762	3.322559	1.814609
H	0.253664	2.898542	2.836676
H	-0.541206	4.052140	1.726239
H	1.236797	3.896558	1.726228
H	0.297938	3.404370	-1.161575
H	-1.406441	-4.392713	-0.281143
H	-0.031265	-4.392347	-1.434879
H	0.827402	-1.440391	-0.694122
$end

$rem
JOBTYPE		SP
EXCHANGE	HF
CORRELATION	pRIMP2
BASIS		cc-pvtz
METHOD		rimp2
AUX_BASIS	rimp2-cc-pvtz
SOLVENT_METHOD	PCM
PURECART	11111
SYMMETRY	false
MEM_TOTAL	110000
SCF_CONVERGENCE = 6
THRESH=10
$end

$solvent
dielectric 4.90
$end
--------------------------------------------------------------

             Standard Nuclear Orientation (Angstroms)
    I     Atom           X                Y                Z
 ----------------------------------------------------------------
    1      C      -0.4976960000    -3.8667250000    -0.5942400000
    2      C       0.3939810000    -3.7039630000     0.4690570000
    3      C       0.6855710000    -2.3570560000     0.8171360000
    4      H       0.8378480000    -4.5610920000     0.9977770000
    5      C       0.0000000000    -1.4406640000     0.0000000000
    6      S      -0.9927820000    -2.2869570000    -1.1831370000
    7      C       1.6208020000    -1.9787430000     1.9320560000
    8      H       2.0355060000    -2.8786780000     2.4261660000
    9      H       1.1099430000    -1.3760150000     2.7118060000
   10      H       2.4773500000    -1.3757280000     1.5646780000
   11      C       0.0000000000     0.0000000000     0.0000000000
   12      C       0.0753000000     0.8603110000     1.0994460000
   13      C       0.1959350000     2.2389510000     0.7767210000
   14      H       0.0431510000     0.4929160000     2.1360880000
   15      C       0.2151880000     2.4587660000    -0.6125460000
   16      S       0.0821600000     0.9388110000    -1.4868090000
   17      C       0.2907620000     3.3225590000     1.8146090000
   18      H       0.2536640000     2.8985420000     2.8366760000
   19      H      -0.5412060000     4.0521400000     1.7262390000
   20      H       1.2367970000     3.8965580000     1.7262280000
   21      H       0.2979380000     3.4043700000    -1.1615750000
   22      H      -1.4064410000    -4.3927130000    -0.2811430000
   23      H      -0.0312650000    -4.3923470000    -1.4348790000
   24      H       0.8274020000    -1.4403910000    -0.6941220000
 ----------------------------------------------------------------

   10   -1180.7597149307      5.13e-07  Convergence criterion met
 Total energy in the final basis set =    -1180.7597149307
        RIMP2         total energy =     -1182.7640505887 a.u.

                    Orbital Energies (a.u.)
 --------------------------------------------------------------

 Alpha MOs
 -- Occupied --
-91.9836 -91.9438 -11.2858 -11.2652 -11.2591 -11.2590 -11.2503 -11.2430
-11.2339 -11.2328 -11.2285 -11.2222  -8.9834  -8.9486  -6.6644  -6.6639
 -6.6632  -6.6299  -6.6289  -6.6276  -1.2008  -1.1530  -1.0599  -1.0298
 -1.0011  -0.9630  -0.9142  -0.9000  -0.8160  -0.7618  -0.7388  -0.7031
 -0.6548  -0.6413  -0.6106  -0.5915  -0.5807  -0.5694  -0.5657  -0.5540
 -0.5455  -0.5332  -0.5185  -0.5050  -0.4881  -0.4817  -0.4649  -0.4483
 -0.3569  -0.3432  -0.3227  -0.2697

          Ground-State Mulliken Net Atomic Charges

     Atom                 Charge (a.u.)
  ----------------------------------------
      1 C                    -0.074964
      2 C                    -0.322562
      3 C                    -0.028956
      4 H                     0.177936
      5 C                     0.113787
      6 S                    -0.175716
      7 C                    -0.280792
      8 H                     0.117383
      9 H                     0.103286
     10 H                     0.109093
     11 C                    -0.086520
     12 C                    -0.260307
     13 C                     0.028680
     14 H                     0.191795
     15 C                    -0.258978
     16 S                     0.006533
     17 C                    -0.273073
     18 H                     0.101516
     19 H                     0.109124
     20 H                     0.108269
     21 H                     0.197169
     22 H                     0.114609
     23 H                     0.110656
     24 H                     0.172033
  ----------------------------------------
  Sum of atomic charges =     0.000000

                    Cartesian Multipole Moments
 -----------------------------------------------------------------
    Charge (ESU x 10^10)
                -0.0000
    Dipole Moment (Debye)
         X       2.3286      Y       0.0185      Z       2.7584
       Tot       3.6099
    Quadrupole Moments (Debye-Ang)
        XX     -91.9344     XY      -2.4164     YY     -73.0530
        XZ       0.1687     YZ      -0.6915     ZZ     -85.7026

 Total job time:  662.72s(wall), 650.55s(cpu)
        *  Thank you very much for using Q-Chem.  Have a nice day.  *
