 Q-Chem 5.4, Q-Chem, Inc., Pleasanton, CA (2021)
 Q-Chem 5.4.0 for Intel X86 EM64T Linux

User input:
--------------------------------------------------------------
$molecule
0 1
C	0.000713	-3.866725	-0.775127
C	0.000302	-3.703963	0.612565
C	-0.000067	-2.357056	1.066639
H	0.000470	-4.561092	1.302900
C	0.000000	-1.440664	0.000000
S	-0.000009	-2.286957	-1.544483
C	-0.000295	-1.978743	2.521872
H	-0.000221	-2.878678	3.166949
H	-0.892850	-1.376015	2.790821
H	0.892005	-1.375728	2.791023
C	0.000000	0.000000	0.000000
C	0.000033	0.863600	1.099446
C	0.000052	2.247508	0.776721
H	0.000026	0.494801	2.136088
C	0.000074	2.468165	-0.612546
S	0.000024	0.942399	-1.486809
C	0.000075	3.335257	1.814609
H	0.000074	2.909620	2.836676
H	-0.892314	3.989552	1.726239
H	0.892483	3.989525	1.726228
H	0.000094	3.417382	-1.161575
H	-0.896681	-4.392713	-1.119411
H	0.898372	-4.392347	-1.119277
H	-1.080000	-1.440937	-0.000115
$end

$rem
JOBTYPE		SP
EXCHANGE	HF
CORRELATION	pRIMP2
BASIS		cc-pvtz
METHOD		rimp2
AUX_BASIS	rimp2-cc-pvtz
SOLVENT_METHOD	PCM
PURECART	11111
SYMMETRY	false
MEM_TOTAL	110000
SCF_CONVERGENCE = 6
THRESH=10
$end

$solvent
dielectric 4.90
$end
--------------------------------------------------------------

   10   -1180.7573988740      5.11e-07  Convergence criterion met
 Total energy in the final basis set =    -1180.7573988740
        RIMP2         total energy =     -1182.7628807905 a.u.
 Total job time:  663.09s(wall), 658.30s(cpu)
        *  Thank you very much for using Q-Chem.  Have a nice day.  *
 Q-Chem 5.4, Q-Chem, Inc., Pleasanton, CA (2021)
 Q-Chem 5.4.0 for Intel X86 EM64T Linux

User input:
--------------------------------------------------------------
$molecule
0 1
C	0.000713	-3.866725	-0.775127
C	0.000302	-3.703963	0.612565
C	-0.000067	-2.357056	1.066639
H	0.000470	-4.561092	1.302900
C	0.000000	-1.440664	0.000000
S	-0.000009	-2.286957	-1.544483
C	-0.000295	-1.978743	2.521872
H	-0.000221	-2.878678	3.166949
H	-0.892850	-1.376015	2.790821
H	0.892005	-1.375728	2.791023
C	0.000000	0.000000	0.000000
C	0.000033	0.863600	1.099446
C	0.000052	2.247508	0.776721
H	0.000026	0.494801	2.136088
C	0.000074	2.468165	-0.612546
S	0.000024	0.942399	-1.486809
C	0.000075	3.335257	1.814609
H	0.000074	2.909620	2.836676
H	-0.892314	3.989552	1.726239
H	0.892483	3.989525	1.726228
H	0.000094	3.417382	-1.161575
H	-0.896681	-4.392713	-1.119411
H	0.898372	-4.392347	-1.119277
H	-1.080000	-1.440937	-0.000115
$end

$rem
JOBTYPE		SP
EXCHANGE	HF
CORRELATION	pRIMP2
BASIS		cc-pvtz
METHOD		rimp2
AUX_BASIS	rimp2-cc-pvtz
SOLVENT_METHOD	PCM
PURECART	11111
SYMMETRY	false
MEM_TOTAL	110000
SCF_CONVERGENCE = 6
THRESH=10
$end

$solvent
dielectric 4.90
$end
--------------------------------------------------------------

             Standard Nuclear Orientation (Angstroms)
    I     Atom           X                Y                Z
 ----------------------------------------------------------------
    1      C       0.0007130000    -3.8667250000    -0.7751270000
    2      C       0.0003020000    -3.7039630000     0.6125650000
    3      C      -0.0000670000    -2.3570560000     1.0666390000
    4      H       0.0004700000    -4.5610920000     1.3029000000
    5      C       0.0000000000    -1.4406640000     0.0000000000
    6      S      -0.0000090000    -2.2869570000    -1.5444830000
    7      C      -0.0002950000    -1.9787430000     2.5218720000
    8      H      -0.0002210000    -2.8786780000     3.1669490000
    9      H      -0.8928500000    -1.3760150000     2.7908210000
   10      H       0.8920050000    -1.3757280000     2.7910230000
   11      C       0.0000000000     0.0000000000     0.0000000000
   12      C       0.0000330000     0.8636000000     1.0994460000
   13      C       0.0000520000     2.2475080000     0.7767210000
   14      H       0.0000260000     0.4948010000     2.1360880000
   15      C       0.0000740000     2.4681650000    -0.6125460000
   16      S       0.0000240000     0.9423990000    -1.4868090000
   17      C       0.0000750000     3.3352570000     1.8146090000
   18      H       0.0000740000     2.9096200000     2.8366760000
   19      H      -0.8923140000     3.9895520000     1.7262390000
   20      H       0.8924830000     3.9895250000     1.7262280000
   21      H       0.0000940000     3.4173820000    -1.1615750000
   22      H      -0.8966810000    -4.3927130000    -1.1194110000
   23      H       0.8983720000    -4.3923470000    -1.1192770000
   24      H      -1.0800000000    -1.4409370000    -0.0001150000
 ----------------------------------------------------------------

   10   -1180.7573988740      5.11e-07  Convergence criterion met
 Total energy in the final basis set =    -1180.7573988740
        RIMP2         total energy =     -1182.7628807905 a.u.

                    Orbital Energies (a.u.)
 --------------------------------------------------------------

 Alpha MOs
 -- Occupied --
-91.9841 -91.9466 -11.2911 -11.2670 -11.2627 -11.2523 -11.2496 -11.2451
-11.2346 -11.2279 -11.2270 -11.2246  -8.9837  -8.9514  -6.6647  -6.6641
 -6.6635  -6.6328  -6.6317  -6.6305  -1.2031  -1.1521  -1.0608  -1.0327
 -1.0012  -0.9615  -0.9169  -0.8993  -0.8188  -0.7639  -0.7277  -0.7057
 -0.6582  -0.6492  -0.6105  -0.5947  -0.5853  -0.5687  -0.5608  -0.5515
 -0.5459  -0.5363  -0.5242  -0.5009  -0.4870  -0.4822  -0.4700  -0.4431
 -0.3617  -0.3440  -0.3241  -0.2640

          Ground-State Mulliken Net Atomic Charges

     Atom                 Charge (a.u.)
  ----------------------------------------
      1 C                    -0.071989
      2 C                    -0.311416
      3 C                    -0.058097
      4 H                     0.179479
      5 C                     0.140773
      6 S                    -0.180001
      7 C                    -0.305385
      8 H                     0.123723
      9 H                     0.105979
     10 H                     0.111064
     11 C                    -0.062602
     12 C                    -0.269286
     13 C                     0.033685
     14 H                     0.189815
     15 C                    -0.286971
     16 S                     0.004718
     17 C                    -0.273266
     18 H                     0.100352
     19 H                     0.108469
     20 H                     0.108459
     21 H                     0.196845
     22 H                     0.111886
     23 H                     0.113939
     24 H                     0.189827
  ----------------------------------------
  Sum of atomic charges =     0.000000

                    Cartesian Multipole Moments
 -----------------------------------------------------------------
    Charge (ESU x 10^10)
                -0.0000
    Dipole Moment (Debye)
         X      -0.8898      Y      -0.6338      Z       3.7455
       Tot       3.9016
    Quadrupole Moments (Debye-Ang)
        XX     -91.7823     XY       1.4916     YY     -72.6317
        XZ       0.2457     YZ      -2.3351     ZZ     -85.6937

 Total job time:  667.90s(wall), 663.86s(cpu)
        *  Thank you very much for using Q-Chem.  Have a nice day.  *
