 Q-Chem 5.4, Q-Chem, Inc., Pleasanton, CA (2021)
 Q-Chem 5.4.0 for Intel X86 EM64T Linux

User input:
--------------------------------------------------------------
$molecule
0 1
C	-0.775127	-3.866725	-0.000713
C	0.612565	-3.703963	-0.000302
C	1.066639	-2.357056	0.000067
H	1.302900	-4.561092	-0.000470
C	-0.000000	-1.440664	-0.000000
S	-1.544483	-2.286957	0.000009
C	2.521872	-1.978743	0.000295
H	3.166949	-2.878678	0.000221
H	2.790821	-1.376015	0.892850
H	2.791023	-1.375728	-0.892005
C	0.000000	0.000000	0.000000
C	0.365003	0.782674	1.099446
C	0.949885	2.036912	0.776721
H	0.209135	0.448431	2.136088
C	1.043159	2.236886	-0.612546
S	0.398297	0.854094	-1.486809
C	1.409609	3.022738	1.814609
H	1.229726	2.636980	2.836676
H	0.877346	3.992870	1.726239
H	2.494910	3.238558	1.726228
H	1.444334	3.097160	-1.161575
H	-1.119411	-4.392713	0.896681
H	-1.119277	-4.392347	-0.898372
H	0.000115	-1.440391	-1.080000
$end

$rem
JOBTYPE		SP
EXCHANGE	HF
CORRELATION	pRIMP2
BASIS		cc-pvtz
METHOD		rimp2
AUX_BASIS	rimp2-cc-pvtz
SOLVENT_METHOD	PCM
PURECART	11111
SYMMETRY	false
MEM_TOTAL	110000
SCF_CONVERGENCE = 6
THRESH=10
$end

$solvent
dielectric 4.90
$end
--------------------------------------------------------------

             Standard Nuclear Orientation (Angstroms)
    I     Atom           X                Y                Z
 ----------------------------------------------------------------
    1      C      -0.7751270000    -3.8667250000    -0.0007130000
    2      C       0.6125650000    -3.7039630000    -0.0003020000
    3      C       1.0666390000    -2.3570560000     0.0000670000
    4      H       1.3029000000    -4.5610920000    -0.0004700000
    5      C       0.0000000000    -1.4406640000     0.0000000000
    6      S      -1.5444830000    -2.2869570000     0.0000090000
    7      C       2.5218720000    -1.9787430000     0.0002950000
    8      H       3.1669490000    -2.8786780000     0.0002210000
    9      H       2.7908210000    -1.3760150000     0.8928500000
   10      H       2.7910230000    -1.3757280000    -0.8920050000
   11      C       0.0000000000     0.0000000000     0.0000000000
   12      C       0.3650030000     0.7826740000     1.0994460000
   13      C       0.9498850000     2.0369120000     0.7767210000
   14      H       0.2091350000     0.4484310000     2.1360880000
   15      C       1.0431590000     2.2368860000    -0.6125460000
   16      S       0.3982970000     0.8540940000    -1.4868090000
   17      C       1.4096090000     3.0227380000     1.8146090000
   18      H       1.2297260000     2.6369800000     2.8366760000
   19      H       0.8773460000     3.9928700000     1.7262390000
   20      H       2.4949100000     3.2385580000     1.7262280000
   21      H       1.4443340000     3.0971600000    -1.1615750000
   22      H      -1.1194110000    -4.3927130000     0.8966810000
   23      H      -1.1192770000    -4.3923470000    -0.8983720000
   24      H       0.0001150000    -1.4403910000    -1.0800000000
 ----------------------------------------------------------------

   10   -1180.7465323688      5.45e-07  Convergence criterion met
 Total energy in the final basis set =    -1180.7465323688
        RIMP2         total energy =     -1182.7545659455 a.u.

                    Orbital Energies (a.u.)
 --------------------------------------------------------------

 Alpha MOs
 -- Occupied --
-91.9861 -91.9381 -11.2734 -11.2702 -11.2618 -11.2532 -11.2517 -11.2429
-11.2391 -11.2304 -11.2295 -11.2180  -8.9859  -8.9429  -6.6668  -6.6662
 -6.6656  -6.6243  -6.6233  -6.6220  -1.1983  -1.1540  -1.0587  -1.0246
 -1.0030  -0.9640  -0.9122  -0.9006  -0.8102  -0.7632  -0.7425  -0.7052
 -0.6524  -0.6322  -0.6117  -0.5869  -0.5753  -0.5744  -0.5702  -0.5537
 -0.5427  -0.5282  -0.5172  -0.5042  -0.4911  -0.4748  -0.4642  -0.4457
 -0.3543  -0.3428  -0.3132  -0.2797

          Ground-State Mulliken Net Atomic Charges

     Atom                 Charge (a.u.)
  ----------------------------------------
      1 C                    -0.076388
      2 C                    -0.331121
      3 C                    -0.013605
      4 H                     0.175468
      5 C                     0.076306
      6 S                    -0.184786
      7 C                    -0.269388
      8 H                     0.114883
      9 H                     0.106133
     10 H                     0.104598
     11 C                    -0.081282
     12 C                    -0.249391
     13 C                     0.036995
     14 H                     0.186489
     15 C                    -0.238511
     16 S                     0.012324
     17 C                    -0.270955
     18 H                     0.103218
     19 H                     0.108347
     20 H                     0.106929
     21 H                     0.199796
     22 H                     0.111180
     23 H                     0.108573
     24 H                     0.164187
  ----------------------------------------
  Sum of atomic charges =     0.000000

                    Cartesian Multipole Moments
 -----------------------------------------------------------------
    Charge (ESU x 10^10)
                -0.0000
    Dipole Moment (Debye)
         X       3.4078      Y       0.9234      Z       0.7656
       Tot       3.6128
    Quadrupole Moments (Debye-Ang)
        XX     -89.9727     XY       0.5306     YY     -75.9143
        XZ       0.6777     YZ       2.1913     ZZ     -85.7527

 Total job time:  662.65s(wall), 658.75s(cpu)
        *  Thank you very much for using Q-Chem.  Have a nice day.  *
