 Q-Chem 5.4, Q-Chem, Inc., Pleasanton, CA (2021)
 Q-Chem 5.4.0 for Intel X86 EM64T Linux

User input:
--------------------------------------------------------------
$molecule
0 1
C	-0.498788	-3.866725	0.593324
C	0.393517	-3.703963	-0.469446
C	0.685674	-2.357056	-0.817050
H	0.837128	-4.561092	-0.998381
C	0.000000	-1.440664	0.000000
S	-0.992768	-2.286957	1.183149
C	1.621254	-1.978743	-1.931676
H	2.035845	-2.878678	-2.425882
H	2.477868	-1.376015	-1.563980
H	1.110719	-1.375728	-2.711417
C	0.000000	0.000000	0.000000
C	0.295399	0.811508	1.099446
C	0.768742	2.111949	0.776721
H	0.169256	0.464952	2.136088
C	0.844232	2.319291	-0.612546
S	0.322342	0.885558	-1.486809
C	1.140796	3.134091	1.814609
H	0.995218	2.734123	2.836676
H	0.526006	4.054142	1.726239
H	2.203157	3.443680	1.726228
H	1.168902	3.211257	-1.161575
H	-0.032646	-4.392713	1.433894
H	-1.407651	-4.392347	0.279954
H	-0.827254	-1.440391	-0.694299
$end

$rem
JOBTYPE		SP
EXCHANGE	HF
CORRELATION	pRIMP2
BASIS		cc-pvtz
METHOD		rimp2
AUX_BASIS	rimp2-cc-pvtz
SOLVENT_METHOD	PCM
PURECART	11111
SYMMETRY	false
MEM_TOTAL	110000
SCF_CONVERGENCE = 6
THRESH=10
$end

$solvent
dielectric 4.90
$end
--------------------------------------------------------------

             Standard Nuclear Orientation (Angstroms)
    I     Atom           X                Y                Z
 ----------------------------------------------------------------
    1      C      -0.4987880000    -3.8667250000     0.5933240000
    2      C       0.3935170000    -3.7039630000    -0.4694460000
    3      C       0.6856740000    -2.3570560000    -0.8170500000
    4      H       0.8371280000    -4.5610920000    -0.9983810000
    5      C       0.0000000000    -1.4406640000     0.0000000000
    6      S      -0.9927680000    -2.2869570000     1.1831490000
    7      C       1.6212540000    -1.9787430000    -1.9316760000
    8      H       2.0358450000    -2.8786780000    -2.4258820000
    9      H       2.4778680000    -1.3760150000    -1.5639800000
   10      H       1.1107190000    -1.3757280000    -2.7114170000
   11      C       0.0000000000     0.0000000000     0.0000000000
   12      C       0.2953990000     0.8115080000     1.0994460000
   13      C       0.7687420000     2.1119490000     0.7767210000
   14      H       0.1692560000     0.4649520000     2.1360880000
   15      C       0.8442320000     2.3192910000    -0.6125460000
   16      S       0.3223420000     0.8855580000    -1.4868090000
   17      C       1.1407960000     3.1340910000     1.8146090000
   18      H       0.9952180000     2.7341230000     2.8366760000
   19      H       0.5260060000     4.0541420000     1.7262390000
   20      H       2.2031570000     3.4436800000     1.7262280000
   21      H       1.1689020000     3.2112570000    -1.1615750000
   22      H      -0.0326460000    -4.3927130000     1.4338940000
   23      H      -1.4076510000    -4.3923470000     0.2799540000
   24      H      -0.8272540000    -1.4403910000    -0.6942990000
 ----------------------------------------------------------------

   10   -1180.7469998987      5.24e-07  Convergence criterion met
 Total energy in the final basis set =    -1180.7469998987
        RIMP2         total energy =     -1182.7557702933 a.u.

                    Orbital Energies (a.u.)
 --------------------------------------------------------------

 Alpha MOs
 -- Occupied --
-91.9829 -91.9434 -11.2810 -11.2645 -11.2625 -11.2569 -11.2501 -11.2419
-11.2362 -11.2303 -11.2280 -11.2202  -8.9830  -8.9479  -6.6639  -6.6634
 -6.6628  -6.6293  -6.6283  -6.6270  -1.2000  -1.1530  -1.0596  -1.0254
 -1.0058  -0.9596  -0.9138  -0.9016  -0.8120  -0.7701  -0.7266  -0.7058
 -0.6541  -0.6399  -0.6107  -0.5924  -0.5785  -0.5731  -0.5693  -0.5525
 -0.5419  -0.5311  -0.5149  -0.5097  -0.4897  -0.4772  -0.4594  -0.4455
 -0.3560  -0.3418  -0.3217  -0.2694

          Ground-State Mulliken Net Atomic Charges

     Atom                 Charge (a.u.)
  ----------------------------------------
      1 C                    -0.071878
      2 C                    -0.327221
      3 C                    -0.037156
      4 H                     0.177692
      5 C                     0.096168
      6 S                    -0.180662
      7 C                    -0.283503
      8 H                     0.114614
      9 H                     0.117637
     10 H                     0.103682
     11 C                    -0.091162
     12 C                    -0.232504
     13 C                     0.019910
     14 H                     0.186941
     15 C                    -0.240036
     16 S                     0.002272
     17 C                    -0.271658
     18 H                     0.102888
     19 H                     0.107967
     20 H                     0.107331
     21 H                     0.197709
     22 H                     0.111630
     23 H                     0.111742
     24 H                     0.177599
  ----------------------------------------
  Sum of atomic charges =     0.000000

                    Cartesian Multipole Moments
 -----------------------------------------------------------------
    Charge (ESU x 10^10)
                -0.0000
    Dipole Moment (Debye)
         X       1.6100      Y       0.2619      Z      -1.0113
       Tot       1.9192
    Quadrupole Moments (Debye-Ang)
        XX     -90.1779     XY       2.3089     YY     -74.8879
        XZ       0.0283     YZ       4.5287     ZZ     -86.0367

 Total job time:  664.95s(wall), 657.31s(cpu)
        *  Thank you very much for using Q-Chem.  Have a nice day.  *
