 Q-Chem 5.4, Q-Chem, Inc., Pleasanton, CA (2021)
 Q-Chem 5.4.0 for Intel X86 EM64T Linux

User input:
--------------------------------------------------------------
$molecule
0 1
C	-0.386946	-3.866725	-0.671636
C	0.306544	-3.703963	0.530345
C	0.533261	-2.357056	0.923770
H	0.651857	-4.561092	1.128109
C	-0.000000	-1.440664	-0.000000
S	-0.772250	-2.286957	-1.337557
C	1.260680	-1.978743	2.184153
H	1.583283	-2.878678	2.742769
H	0.622180	-1.376015	2.863347
H	2.168011	-1.375728	1.971094
C	0.000000	0.000000	0.000000
C	0.365003	0.782674	1.099446
C	0.949885	2.036912	0.776721
H	0.209135	0.448431	2.136088
C	1.043159	2.236886	-0.612546
S	0.398297	0.854094	-1.486809
C	1.409609	3.022738	1.814609
H	1.229726	2.636980	2.836676
H	0.877346	3.992870	1.726239
H	2.494910	3.238558	1.726228
H	1.444334	3.097160	-1.161575
H	-1.336254	-4.392713	-0.521098
H	0.218374	-4.392347	-1.418509
H	-0.935365	-1.440937	0.539900
$end

$rem
JOBTYPE		SP
EXCHANGE	HF
CORRELATION	pRIMP2
BASIS		cc-pvtz
METHOD		rimp2
AUX_BASIS	rimp2-cc-pvtz
SOLVENT_METHOD	PCM
PURECART	11111
SYMMETRY	false
MEM_TOTAL	110000
SCF_CONVERGENCE = 6
THRESH=10
$end

$solvent
dielectric 4.90
$end
--------------------------------------------------------------

             Standard Nuclear Orientation (Angstroms)
    I     Atom           X                Y                Z
 ----------------------------------------------------------------
    1      C      -0.3869460000    -3.8667250000    -0.6716360000
    2      C       0.3065440000    -3.7039630000     0.5303450000
    3      C       0.5332610000    -2.3570560000     0.9237700000
    4      H       0.6518570000    -4.5610920000     1.1281090000
    5      C       0.0000000000    -1.4406640000     0.0000000000
    6      S      -0.7722500000    -2.2869570000    -1.3375570000
    7      C       1.2606800000    -1.9787430000     2.1841530000
    8      H       1.5832830000    -2.8786780000     2.7427690000
    9      H       0.6221800000    -1.3760150000     2.8633470000
   10      H       2.1680110000    -1.3757280000     1.9710940000
   11      C       0.0000000000     0.0000000000     0.0000000000
   12      C       0.3650030000     0.7826740000     1.0994460000
   13      C       0.9498850000     2.0369120000     0.7767210000
   14      H       0.2091350000     0.4484310000     2.1360880000
   15      C       1.0431590000     2.2368860000    -0.6125460000
   16      S       0.3982970000     0.8540940000    -1.4868090000
   17      C       1.4096090000     3.0227380000     1.8146090000
   18      H       1.2297260000     2.6369800000     2.8366760000
   19      H       0.8773460000     3.9928700000     1.7262390000
   20      H       2.4949100000     3.2385580000     1.7262280000
   21      H       1.4443340000     3.0971600000    -1.1615750000
   22      H      -1.3362540000    -4.3927130000    -0.5210980000
   23      H       0.2183740000    -4.3923470000    -1.4185090000
   24      H      -0.9353650000    -1.4409370000     0.5399000000
 ----------------------------------------------------------------

   10   -1180.7430278396      5.53e-07  Convergence criterion met
 Total energy in the final basis set =    -1180.7430278396
        RIMP2         total energy =     -1182.7540619236 a.u.

                    Orbital Energies (a.u.)
 --------------------------------------------------------------

 Alpha MOs
 -- Occupied --
-91.9809 -91.9435 -11.2815 -11.2651 -11.2611 -11.2573 -11.2508 -11.2426
-11.2375 -11.2327 -11.2290 -11.2207  -8.9808  -8.9482  -6.6617  -6.6611
 -6.6605  -6.6296  -6.6286  -6.6274  -1.2008  -1.1529  -1.0592  -1.0300
 -1.0017  -0.9622  -0.9142  -0.9003  -0.8162  -0.7618  -0.7285  -0.7087
 -0.6562  -0.6460  -0.6107  -0.5925  -0.5878  -0.5703  -0.5593  -0.5532
 -0.5420  -0.5339  -0.5219  -0.5059  -0.4821  -0.4759  -0.4653  -0.4445
 -0.3577  -0.3423  -0.3225  -0.2660

          Ground-State Mulliken Net Atomic Charges

     Atom                 Charge (a.u.)
  ----------------------------------------
      1 C                    -0.074711
      2 C                    -0.321257
      3 C                    -0.065930
      4 H                     0.178342
      5 C                     0.120761
      6 S                    -0.179568
      7 C                    -0.294173
      8 H                     0.120929
      9 H                     0.097829
     10 H                     0.117674
     11 C                    -0.037487
     12 C                    -0.315762
     13 C                     0.056048
     14 H                     0.191875
     15 C                    -0.261106
     16 S                     0.016957
     17 C                    -0.271991
     18 H                     0.101221
     19 H                     0.108905
     20 H                     0.108211
     21 H                     0.195408
     22 H                     0.111302
     23 H                     0.111953
     24 H                     0.184570
  ----------------------------------------
  Sum of atomic charges =     0.000000

                    Cartesian Multipole Moments
 -----------------------------------------------------------------
    Charge (ESU x 10^10)
                -0.0000
    Dipole Moment (Debye)
         X       1.2203      Y       0.0246      Z       4.0146
       Tot       4.1961
    Quadrupole Moments (Debye-Ang)
        XX     -89.5633     XY       3.5502     YY     -75.2991
        XZ       0.7747     YZ      -2.6830     ZZ     -86.1348

 Total job time:  673.63s(wall), 668.80s(cpu)
        *  Thank you very much for using Q-Chem.  Have a nice day.  *
