 Q-Chem 5.4, Q-Chem, Inc., Pleasanton, CA (2021)
 Q-Chem 5.4.0 for Intel X86 EM64T Linux

User input:
--------------------------------------------------------------
$molecule
0 1
C	0.388181	-3.866725	-0.670924
C	-0.306020	-3.703963	0.530648
C	-0.533378	-2.357056	0.923703
H	-0.651043	-4.561092	1.128579
C	0.000000	-1.440664	0.000000
S	0.772234	-2.286957	-1.337567
C	-1.261192	-1.978743	2.183857
H	-1.583666	-2.878678	2.742548
H	-2.168641	-1.376015	1.970497
H	-0.623012	-1.375728	2.863099
C	0.000000	0.000000	0.000000
C	0.747916	0.431772	1.099446
C	1.946425	1.123709	0.776721
H	0.428523	0.247378	2.136088
C	2.137531	1.234018	-0.612546
S	0.816154	0.471179	-1.486809
C	2.888455	1.667564	1.814609
H	2.519842	1.454746	2.836676
H	3.008896	2.767543	1.726239
H	3.901271	1.221850	1.726228
H	2.959587	1.708609	-1.161575
H	-0.216843	-4.392713	-1.417779
H	1.337652	-4.392347	-0.520136
H	0.935250	-1.440391	0.540100
$end

$rem
JOBTYPE		SP
EXCHANGE	HF
CORRELATION	pRIMP2
BASIS		cc-pvtz
METHOD		rimp2
AUX_BASIS	rimp2-cc-pvtz
SOLVENT_METHOD	PCM
PURECART	11111
SYMMETRY	false
MEM_TOTAL	110000
SCF_CONVERGENCE = 6
THRESH=10
$end

$solvent
dielectric 4.90
$end
--------------------------------------------------------------

             Standard Nuclear Orientation (Angstroms)
    I     Atom           X                Y                Z
 ----------------------------------------------------------------
    1      C       0.3881810000    -3.8667250000    -0.6709240000
    2      C      -0.3060200000    -3.7039630000     0.5306480000
    3      C      -0.5333780000    -2.3570560000     0.9237030000
    4      H      -0.6510430000    -4.5610920000     1.1285790000
    5      C       0.0000000000    -1.4406640000     0.0000000000
    6      S       0.7722340000    -2.2869570000    -1.3375670000
    7      C      -1.2611920000    -1.9787430000     2.1838570000
    8      H      -1.5836660000    -2.8786780000     2.7425480000
    9      H      -2.1686410000    -1.3760150000     1.9704970000
   10      H      -0.6230120000    -1.3757280000     2.8630990000
   11      C       0.0000000000     0.0000000000     0.0000000000
   12      C       0.7479160000     0.4317720000     1.0994460000
   13      C       1.9464250000     1.1237090000     0.7767210000
   14      H       0.4285230000     0.2473780000     2.1360880000
   15      C       2.1375310000     1.2340180000    -0.6125460000
   16      S       0.8161540000     0.4711790000    -1.4868090000
   17      C       2.8884550000     1.6675640000     1.8146090000
   18      H       2.5198420000     1.4547460000     2.8366760000
   19      H       3.0088960000     2.7675430000     1.7262390000
   20      H       3.9012710000     1.2218500000     1.7262280000
   21      H       2.9595870000     1.7086090000    -1.1615750000
   22      H      -0.2168430000    -4.3927130000    -1.4177790000
   23      H       1.3376520000    -4.3923470000    -0.5201360000
   24      H       0.9352500000    -1.4403910000     0.5401000000
 ----------------------------------------------------------------

   11   -1180.6624220054      8.81e-07  Convergence criterion met
 Total energy in the final basis set =    -1180.6624220054
        RIMP2         total energy =     -1182.6923831457 a.u.

                    Orbital Energies (a.u.)
 --------------------------------------------------------------

 Alpha MOs
 -- Occupied --
-91.9860 -91.9366 -11.2826 -11.2599 -11.2559 -11.2547 -11.2511 -11.2481
-11.2320 -11.2313 -11.2312 -11.2121  -8.9865  -8.9413  -6.6672  -6.6664
 -6.6662  -6.6225  -6.6214  -6.6200  -1.2115  -1.1521  -1.0597  -1.0317
 -1.0009  -0.9628  -0.9089  -0.9030  -0.8138  -0.7583  -0.7336  -0.7028
 -0.6645  -0.6424  -0.6100  -0.5932  -0.5843  -0.5717  -0.5588  -0.5564
 -0.5398  -0.5352  -0.5179  -0.5063  -0.4889  -0.4811  -0.4535  -0.4284
 -0.3555  -0.3406  -0.3237  -0.2498

          Ground-State Mulliken Net Atomic Charges

     Atom                 Charge (a.u.)
  ----------------------------------------
      1 C                    -0.090364
      2 C                    -0.327530
      3 C                    -0.071565
      4 H                     0.171058
      5 C                     0.108950
      6 S                    -0.181760
      7 C                    -0.282238
      8 H                     0.115565
      9 H                     0.111874
     10 H                     0.094962
     11 C                    -0.138245
     12 C                    -0.155671
     13 C                    -0.019081
     14 H                     0.197911
     15 C                    -0.206715
     16 S                     0.049277
     17 C                    -0.268232
     18 H                     0.102248
     19 H                     0.108759
     20 H                     0.105526
     21 H                     0.202879
     22 H                     0.105083
     23 H                     0.104780
     24 H                     0.162528
  ----------------------------------------
  Sum of atomic charges =     0.000000

                    Cartesian Multipole Moments
 -----------------------------------------------------------------
    Charge (ESU x 10^10)
                -0.0000
    Dipole Moment (Debye)
         X       2.0685      Y       0.6879      Z       3.6699
       Tot       4.2685
    Quadrupole Moments (Debye-Ang)
        XX     -82.1391     XY       5.9689     YY     -84.8215
        XZ       0.1256     YZ      -3.4316     ZZ     -85.0174

 Total job time:  768.01s(wall), 764.61s(cpu)
        *  Thank you very much for using Q-Chem.  Have a nice day.  *
