 Q-Chem 5.4, Q-Chem, Inc., Pleasanton, CA (2021)
 Q-Chem 5.4.0 for Intel X86 EM64T Linux

User input:
--------------------------------------------------------------
$molecule
0 1
C	-0.388181	-3.866725	0.670924
C	0.306020	-3.703963	-0.530648
C	0.533378	-2.357056	-0.923703
H	0.651043	-4.561092	-1.128579
C	0.000000	-1.440664	0.000000
S	-0.772234	-2.286957	1.337567
C	1.261192	-1.978743	-2.183857
H	1.583666	-2.878678	-2.742548
H	2.168641	-1.376015	-1.970497
H	0.623012	-1.375728	-2.863099
C	0.000000	0.000000	0.000000
C	0.431829	0.747884	1.099446
C	1.123799	1.946373	0.776721
H	0.247423	0.428497	2.136088
C	1.234147	2.137457	-0.612546
S	0.471221	0.816130	-1.486809
C	1.667694	2.888380	1.814609
H	1.454874	2.519768	2.836676
H	1.222009	3.901210	1.726239
H	2.767675	3.008788	1.726228
H	1.708773	2.959493	-1.161575
H	0.216843	-4.392713	1.417779
H	-1.337652	-4.392347	0.520136
H	-0.935250	-1.440391	-0.540100
$end

$rem
JOBTYPE		SP
EXCHANGE	HF
CORRELATION	pRIMP2
BASIS		cc-pvtz
METHOD		rimp2
AUX_BASIS	rimp2-cc-pvtz
SOLVENT_METHOD	PCM
PURECART	11111
SYMMETRY	false
MEM_TOTAL	110000
SCF_CONVERGENCE = 6
THRESH=10
$end

$solvent
dielectric 4.90
$end
--------------------------------------------------------------

   10   -1180.7306179887      6.02e-07  Convergence criterion met
 Total energy in the final basis set =    -1180.7306179887
        RIMP2         total energy =     -1182.7440377665 a.u.

                    Orbital Energies (a.u.)
 --------------------------------------------------------------

 Alpha MOs
 -- Occupied --
-91.9804 -91.9430 -11.2776 -11.2646 -11.2639 -11.2557 -11.2496 -11.2417
-11.2375 -11.2296 -11.2279 -11.2189  -8.9810  -8.9475  -6.6618  -6.6612
 -6.6607  -6.6289  -6.6279  -6.6267  -1.2005  -1.1526  -1.0594  -1.0256
 -1.0058  -0.9587  -0.9135  -0.9022  -0.8106  -0.7710  -0.7236  -0.7067
 -0.6531  -0.6412  -0.6108  -0.5933  -0.5803  -0.5724  -0.5686  -0.5511
 -0.5413  -0.5307  -0.5155  -0.5136  -0.4889  -0.4713  -0.4569  -0.4434
 -0.3558  -0.3399  -0.3233  -0.2651

          Ground-State Mulliken Net Atomic Charges

     Atom                 Charge (a.u.)
  ----------------------------------------
      1 C                    -0.069976
      2 C                    -0.330258
      3 C                    -0.040317
      4 H                     0.177876
      5 C                     0.080858
      6 S                    -0.187688
      7 C                    -0.284691
      8 H                     0.113646
      9 H                     0.119334
     10 H                     0.102947
     11 C                    -0.079440
     12 C                    -0.225937
     13 C                     0.019996
     14 H                     0.186245
     15 C                    -0.237503
     16 S                     0.003697
     17 C                    -0.270869
     18 H                     0.102735
     19 H                     0.107775
     20 H                     0.106632
     21 H                     0.198185
     22 H                     0.111461
     23 H                     0.111013
     24 H                     0.184277
  ----------------------------------------
  Sum of atomic charges =     0.000000

                    Cartesian Multipole Moments
 -----------------------------------------------------------------
    Charge (ESU x 10^10)
                -0.0000
    Dipole Moment (Debye)
         X       1.5393      Y       0.2448      Z      -1.2011
       Tot       1.9677
    Quadrupole Moments (Debye-Ang)
        XX     -88.7657     XY       4.1132     YY     -76.7658
        XZ      -0.0053     YZ       4.5349     ZZ     -85.8237

 Total job time:  669.62s(wall), 666.01s(cpu)
        *  Thank you very much for using Q-Chem.  Have a nice day.  *
 Q-Chem 5.4, Q-Chem, Inc., Pleasanton, CA (2021)
 Q-Chem 5.4.0 for Intel X86 EM64T Linux

User input:
--------------------------------------------------------------
$molecule
0 1
C	-0.388181	-3.866725	0.670924
C	0.306020	-3.703963	-0.530648
C	0.533378	-2.357056	-0.923703
H	0.651043	-4.561092	-1.128579
C	0.000000	-1.440664	0.000000
S	-0.772234	-2.286957	1.337567
C	1.261192	-1.978743	-2.183857
H	1.583666	-2.878678	-2.742548
H	2.168641	-1.376015	-1.970497
H	0.623012	-1.375728	-2.863099
C	0.000000	0.000000	0.000000
C	0.431829	0.747884	1.099446
C	1.123799	1.946373	0.776721
H	0.247423	0.428497	2.136088
C	1.234147	2.137457	-0.612546
S	0.471221	0.816130	-1.486809
C	1.667694	2.888380	1.814609
H	1.454874	2.519768	2.836676
H	1.222009	3.901210	1.726239
H	2.767675	3.008788	1.726228
H	1.708773	2.959493	-1.161575
H	0.216843	-4.392713	1.417779
H	-1.337652	-4.392347	0.520136
H	-0.935250	-1.440391	-0.540100
$end

$rem
JOBTYPE		SP
EXCHANGE	HF
CORRELATION	pRIMP2
BASIS		cc-pvtz
METHOD		rimp2
AUX_BASIS	rimp2-cc-pvtz
SOLVENT_METHOD	PCM
PURECART	11111
SYMMETRY	false
MEM_TOTAL	110000
SCF_CONVERGENCE = 6
THRESH=10
$end

$solvent
dielectric 4.90
$end
--------------------------------------------------------------

             Standard Nuclear Orientation (Angstroms)
    I     Atom           X                Y                Z
 ----------------------------------------------------------------
    1      C      -0.3881810000    -3.8667250000     0.6709240000
    2      C       0.3060200000    -3.7039630000    -0.5306480000
    3      C       0.5333780000    -2.3570560000    -0.9237030000
    4      H       0.6510430000    -4.5610920000    -1.1285790000
    5      C       0.0000000000    -1.4406640000     0.0000000000
    6      S      -0.7722340000    -2.2869570000     1.3375670000
    7      C       1.2611920000    -1.9787430000    -2.1838570000
    8      H       1.5836660000    -2.8786780000    -2.7425480000
    9      H       2.1686410000    -1.3760150000    -1.9704970000
   10      H       0.6230120000    -1.3757280000    -2.8630990000
   11      C       0.0000000000     0.0000000000     0.0000000000
   12      C       0.4318290000     0.7478840000     1.0994460000
   13      C       1.1237990000     1.9463730000     0.7767210000
   14      H       0.2474230000     0.4284970000     2.1360880000
   15      C       1.2341470000     2.1374570000    -0.6125460000
   16      S       0.4712210000     0.8161300000    -1.4868090000
   17      C       1.6676940000     2.8883800000     1.8146090000
   18      H       1.4548740000     2.5197680000     2.8366760000
   19      H       1.2220090000     3.9012100000     1.7262390000
   20      H       2.7676750000     3.0087880000     1.7262280000
   21      H       1.7087730000     2.9594930000    -1.1615750000
   22      H       0.2168430000    -4.3927130000     1.4177790000
   23      H      -1.3376520000    -4.3923470000     0.5201360000
   24      H      -0.9352500000    -1.4403910000    -0.5401000000
 ----------------------------------------------------------------
