 Q-Chem 5.4, Q-Chem, Inc., Pleasanton, CA (2021)
 Q-Chem 5.4.0 for Intel X86 EM64T Linux

User input:
--------------------------------------------------------------
$molecule
0 1
C	0.594240	-3.866725	-0.497696
C	-0.469057	-3.703963	0.393981
C	-0.817136	-2.357056	0.685571
H	-0.997777	-4.561092	0.837848
C	-0.000000	-1.440664	-0.000000
S	1.183137	-2.286957	-0.992782
C	-1.932056	-1.978743	1.620802
H	-2.426166	-2.878678	2.035506
H	-2.711806	-1.376015	1.109943
H	-1.564678	-1.375728	2.477350
C	0.000000	0.000000	0.000000
C	0.555137	0.661535	1.099446
C	1.444710	1.721658	0.776721
H	0.318072	0.379023	2.136088
C	1.586563	1.890676	-0.612546
S	0.605781	0.721904	-1.486809
C	2.143920	2.554907	1.814609
H	1.870325	2.228851	2.836676
H	1.880882	3.629742	1.726239
H	3.248098	2.482476	1.726228
H	2.196723	2.617806	-1.161575
H	0.281143	-4.392713	-1.406441
H	1.434879	-4.392347	-0.031265
H	0.694122	-1.440391	0.827402
$end

$rem
JOBTYPE		SP
EXCHANGE	HF
CORRELATION	pRIMP2
BASIS		cc-pvtz
METHOD		rimp2
AUX_BASIS	rimp2-cc-pvtz
SOLVENT_METHOD	PCM
PURECART	11111
SYMMETRY	false
MEM_TOTAL	110000
SCF_CONVERGENCE = 6
THRESH=10
$end

$solvent
dielectric 4.90
$end
--------------------------------------------------------------

             Standard Nuclear Orientation (Angstroms)
    I     Atom           X                Y                Z
 ----------------------------------------------------------------
    1      C       0.5942400000    -3.8667250000    -0.4976960000
    2      C      -0.4690570000    -3.7039630000     0.3939810000
    3      C      -0.8171360000    -2.3570560000     0.6855710000
    4      H      -0.9977770000    -4.5610920000     0.8378480000
    5      C       0.0000000000    -1.4406640000     0.0000000000
    6      S       1.1831370000    -2.2869570000    -0.9927820000
    7      C      -1.9320560000    -1.9787430000     1.6208020000
    8      H      -2.4261660000    -2.8786780000     2.0355060000
    9      H      -2.7118060000    -1.3760150000     1.1099430000
   10      H      -1.5646780000    -1.3757280000     2.4773500000
   11      C       0.0000000000     0.0000000000     0.0000000000
   12      C       0.5551370000     0.6615350000     1.0994460000
   13      C       1.4447100000     1.7216580000     0.7767210000
   14      H       0.3180720000     0.3790230000     2.1360880000
   15      C       1.5865630000     1.8906760000    -0.6125460000
   16      S       0.6057810000     0.7219040000    -1.4868090000
   17      C       2.1439200000     2.5549070000     1.8146090000
   18      H       1.8703250000     2.2288510000     2.8366760000
   19      H       1.8808820000     3.6297420000     1.7262390000
   20      H       3.2480980000     2.4824760000     1.7262280000
   21      H       2.1967230000     2.6178060000    -1.1615750000
   22      H       0.2811430000    -4.3927130000    -1.4064410000
   23      H       1.4348790000    -4.3923470000    -0.0312650000
   24      H       0.6941220000    -1.4403910000     0.8274020000
 ----------------------------------------------------------------

   10   -1180.7215568517      7.49e-07  Convergence criterion met
 Total energy in the final basis set =    -1180.7215568517
        RIMP2         total energy =     -1182.7361846906 a.u.

                    Orbital Energies (a.u.)
 --------------------------------------------------------------

 Alpha MOs
 -- Occupied --
-91.9831 -91.9407 -11.2745 -11.2680 -11.2589 -11.2517 -11.2508 -11.2432
-11.2376 -11.2315 -11.2296 -11.2143  -8.9830  -8.9452  -6.6639  -6.6632
 -6.6628  -6.6265  -6.6255  -6.6242  -1.2018  -1.1527  -1.0579  -1.0283
 -1.0020  -0.9606  -0.9097  -0.9014  -0.8143  -0.7571  -0.7342  -0.7012
 -0.6615  -0.6415  -0.6094  -0.5869  -0.5850  -0.5706  -0.5622  -0.5528
 -0.5405  -0.5319  -0.5130  -0.5069  -0.4890  -0.4755  -0.4632  -0.4417
 -0.3542  -0.3415  -0.3202  -0.2634

          Ground-State Mulliken Net Atomic Charges

     Atom                 Charge (a.u.)
  ----------------------------------------
      1 C                    -0.080911
      2 C                    -0.333140
      3 C                    -0.048773
      4 H                     0.173099
      5 C                     0.069609
      6 S                    -0.171997
      7 C                    -0.276278
      8 H                     0.114530
      9 H                     0.108857
     10 H                     0.100158
     11 C                    -0.075298
     12 C                    -0.217515
     13 C                     0.011562
     14 H                     0.187819
     15 C                    -0.226338
     16 S                     0.016433
     17 C                    -0.269715
     18 H                     0.101311
     19 H                     0.108101
     20 H                     0.107393
     21 H                     0.197877
     22 H                     0.108005
     23 H                     0.108920
     24 H                     0.186290
  ----------------------------------------
  Sum of atomic charges =     0.000000

                    Cartesian Multipole Moments
 -----------------------------------------------------------------
    Charge (ESU x 10^10)
                -0.0000
    Dipole Moment (Debye)
         X       0.1003      Y       0.5704      Z       3.5082
       Tot       3.5557
    Quadrupole Moments (Debye-Ang)
        XX     -86.7965     XY       7.0547     YY     -79.7090
        XZ       0.6004     YZ      -2.4988     ZZ     -85.7430

 Total job time:  659.30s(wall), 655.20s(cpu)
        *  Thank you very much for using Q-Chem.  Have a nice day.  *
