 Q-Chem 5.4, Q-Chem, Inc., Pleasanton, CA (2021)
 Q-Chem 5.4.0 for Intel X86 EM64T Linux

User input:
--------------------------------------------------------------
$molecule
0 1
C	-0.135301	-3.866725	0.763228
C	0.106073	-3.703963	-0.603311
C	0.185286	-2.357056	-1.050423
H	0.225783	-4.561092	-1.283188
C	-0.000000	-1.440664	-0.000000
S	-0.268187	-2.286957	1.521021
C	0.438209	-1.978743	-2.483507
H	0.550153	-2.878678	-3.118798
H	1.363906	-1.376015	-2.593381
H	-0.393798	-1.375728	-2.903516
C	0.000000	0.000000	0.000000
C	0.149995	0.850475	1.099446
C	0.390327	2.213354	0.776721
H	0.085947	0.487279	2.136088
C	0.428665	2.430655	-0.612546
S	0.163670	0.928078	-1.486809
C	0.579235	3.284574	1.814609
H	0.505323	2.865404	2.836676
H	-0.185980	4.083890	1.726239
H	1.571698	3.773937	1.726228
H	0.593515	3.365448	-1.161575
H	0.688674	-4.392713	1.258111
H	-1.079084	-4.392347	0.946272
H	-1.063572	-1.440391	-0.187654
$end

$rem
JOBTYPE		SP
EXCHANGE	HF
CORRELATION	pRIMP2
BASIS		cc-pvtz
METHOD		rimp2
AUX_BASIS	rimp2-cc-pvtz
SOLVENT_METHOD	PCM
PURECART	11111
SYMMETRY	false
MEM_TOTAL	110000
SCF_CONVERGENCE = 6
THRESH=10
$end

$solvent
dielectric 4.90
$end
--------------------------------------------------------------

   10   -1180.7547001640      5.07e-07  Convergence criterion met
 Total energy in the final basis set =    -1180.7547001640
        RIMP2         total energy =     -1182.7613253382 a.u.
 Total job time:  658.32s(wall), 654.86s(cpu)
        *  Thank you very much for using Q-Chem.  Have a nice day.  *
 Q-Chem 5.4, Q-Chem, Inc., Pleasanton, CA (2021)
 Q-Chem 5.4.0 for Intel X86 EM64T Linux

User input:
--------------------------------------------------------------
$molecule
0 1
C	-0.135301	-3.866725	0.763228
C	0.106073	-3.703963	-0.603311
C	0.185286	-2.357056	-1.050423
H	0.225783	-4.561092	-1.283188
C	-0.000000	-1.440664	-0.000000
S	-0.268187	-2.286957	1.521021
C	0.438209	-1.978743	-2.483507
H	0.550153	-2.878678	-3.118798
H	1.363906	-1.376015	-2.593381
H	-0.393798	-1.375728	-2.903516
C	0.000000	0.000000	0.000000
C	0.149995	0.850475	1.099446
C	0.390327	2.213354	0.776721
H	0.085947	0.487279	2.136088
C	0.428665	2.430655	-0.612546
S	0.163670	0.928078	-1.486809
C	0.579235	3.284574	1.814609
H	0.505323	2.865404	2.836676
H	-0.185980	4.083890	1.726239
H	1.571698	3.773937	1.726228
H	0.593515	3.365448	-1.161575
H	0.688674	-4.392713	1.258111
H	-1.079084	-4.392347	0.946272
H	-1.063572	-1.440391	-0.187654
$end

$rem
JOBTYPE		SP
EXCHANGE	HF
CORRELATION	pRIMP2
BASIS		cc-pvtz
METHOD		rimp2
AUX_BASIS	rimp2-cc-pvtz
SOLVENT_METHOD	PCM
PURECART	11111
SYMMETRY	false
MEM_TOTAL	110000
SCF_CONVERGENCE = 6
THRESH=10
$end

$solvent
dielectric 4.90
$end
--------------------------------------------------------------

             Standard Nuclear Orientation (Angstroms)
    I     Atom           X                Y                Z
 ----------------------------------------------------------------
    1      C      -0.1353010000    -3.8667250000     0.7632280000
    2      C       0.1060730000    -3.7039630000    -0.6033110000
    3      C       0.1852860000    -2.3570560000    -1.0504230000
    4      H       0.2257830000    -4.5610920000    -1.2831880000
    5      C       0.0000000000    -1.4406640000     0.0000000000
    6      S      -0.2681870000    -2.2869570000     1.5210210000
    7      C       0.4382090000    -1.9787430000    -2.4835070000
    8      H       0.5501530000    -2.8786780000    -3.1187980000
    9      H       1.3639060000    -1.3760150000    -2.5933810000
   10      H      -0.3937980000    -1.3757280000    -2.9035160000
   11      C       0.0000000000     0.0000000000     0.0000000000
   12      C       0.1499950000     0.8504750000     1.0994460000
   13      C       0.3903270000     2.2133540000     0.7767210000
   14      H       0.0859470000     0.4872790000     2.1360880000
   15      C       0.4286650000     2.4306550000    -0.6125460000
   16      S       0.1636700000     0.9280780000    -1.4868090000
   17      C       0.5792350000     3.2845740000     1.8146090000
   18      H       0.5053230000     2.8654040000     2.8366760000
   19      H      -0.1859800000     4.0838900000     1.7262390000
   20      H       1.5716980000     3.7739370000     1.7262280000
   21      H       0.5935150000     3.3654480000    -1.1615750000
   22      H       0.6886740000    -4.3927130000     1.2581110000
   23      H      -1.0790840000    -4.3923470000     0.9462720000
   24      H      -1.0635720000    -1.4403910000    -0.1876540000
 ----------------------------------------------------------------

   10   -1180.7547001640      5.07e-07  Convergence criterion met
 Total energy in the final basis set =    -1180.7547001640
        RIMP2         total energy =     -1182.7613253382 a.u.

                    Orbital Energies (a.u.)
 --------------------------------------------------------------

 Alpha MOs
 -- Occupied --
-91.9811 -91.9466 -11.2892 -11.2666 -11.2615 -11.2541 -11.2496 -11.2443
-11.2327 -11.2312 -11.2273 -11.2228  -8.9812  -8.9512  -6.6622  -6.6616
 -6.6609  -6.6325  -6.6315  -6.6303  -1.2025  -1.1523  -1.0610  -1.0285
 -1.0066  -0.9569  -0.9165  -0.9016  -0.8148  -0.7724  -0.7180  -0.7055
 -0.6582  -0.6481  -0.6108  -0.5933  -0.5822  -0.5715  -0.5681  -0.5534
 -0.5420  -0.5341  -0.5163  -0.5104  -0.4881  -0.4838  -0.4581  -0.4451
 -0.3590  -0.3416  -0.3265  -0.2647

          Ground-State Mulliken Net Atomic Charges

     Atom                 Charge (a.u.)
  ----------------------------------------
      1 C                    -0.072870
      2 C                    -0.319586
      3 C                    -0.058127
      4 H                     0.179411
      5 C                     0.160912
      6 S                    -0.185873
      7 C                    -0.307461
      8 H                     0.121493
      9 H                     0.119058
     10 H                     0.107166
     11 C                    -0.049214
     12 C                    -0.296837
     13 C                     0.040267
     14 H                     0.179845
     15 C                    -0.275283
     16 S                     0.003433
     17 C                    -0.272133
     18 H                     0.102578
     19 H                     0.108232
     20 H                     0.108302
     21 H                     0.196804
     22 H                     0.112921
     23 H                     0.112662
     24 H                     0.184300
  ----------------------------------------
  Sum of atomic charges =     0.000000

                    Cartesian Multipole Moments
 -----------------------------------------------------------------
    Charge (ESU x 10^10)
                -0.0000
    Dipole Moment (Debye)
         X      -0.1742      Y      -0.4269      Z      -1.2090
       Tot       1.2940
    Quadrupole Moments (Debye-Ang)
        XX     -91.3841     XY       2.5399     YY     -73.3842
        XZ      -0.2428     YZ       4.8643     ZZ     -85.6195

 Total job time:  658.32s(wall), 651.19s(cpu)
        *  Thank you very much for using Q-Chem.  Have a nice day.  *
