 Q-Chem 5.4, Q-Chem, Inc., Pleasanton, CA (2021)
 Q-Chem 5.4.0 for Intel X86 EM64T Linux

User input:
--------------------------------------------------------------
$molecule
0 1
C	-0.670924	-3.866725	-0.388181
C	0.530648	-3.703963	0.306020
C	0.923703	-2.357056	0.533378
H	1.128579	-4.561092	0.651043
C	0.000000	-1.440664	0.000000
S	-1.337567	-2.286957	-0.772234
C	2.183857	-1.978743	1.261192
H	2.742548	-2.878678	1.583666
H	1.970497	-1.376015	2.168641
H	2.863099	-1.375728	0.623012
C	0.000000	0.000000	0.000000
C	0.747916	0.431772	1.099446
C	1.946425	1.123709	0.776721
H	0.428523	0.247378	2.136088
C	2.137531	1.234018	-0.612546
S	0.816154	0.471179	-1.486809
C	2.888455	1.667564	1.814609
H	2.519842	1.454746	2.836676
H	3.008896	2.767543	1.726239
H	3.901271	1.221850	1.726228
H	2.959587	1.708609	-1.161575
H	-1.417779	-4.392713	0.216843
H	-0.520136	-4.392347	-1.337652
H	-0.540100	-1.440937	0.935250
$end

$rem
JOBTYPE		SP
EXCHANGE	HF
CORRELATION	pRIMP2
BASIS		cc-pvtz
METHOD		rimp2
AUX_BASIS	rimp2-cc-pvtz
SOLVENT_METHOD	PCM
PURECART	11111
SYMMETRY	false
MEM_TOTAL	110000
SCF_CONVERGENCE = 6
THRESH=10
$end

$solvent
dielectric 4.90
$end
--------------------------------------------------------------

             Standard Nuclear Orientation (Angstroms)
    I     Atom           X                Y                Z
 ----------------------------------------------------------------
    1      C      -0.6709240000    -3.8667250000    -0.3881810000
    2      C       0.5306480000    -3.7039630000     0.3060200000
    3      C       0.9237030000    -2.3570560000     0.5333780000
    4      H       1.1285790000    -4.5610920000     0.6510430000
    5      C       0.0000000000    -1.4406640000     0.0000000000
    6      S      -1.3375670000    -2.2869570000    -0.7722340000
    7      C       2.1838570000    -1.9787430000     1.2611920000
    8      H       2.7425480000    -2.8786780000     1.5836660000
    9      H       1.9704970000    -1.3760150000     2.1686410000
   10      H       2.8630990000    -1.3757280000     0.6230120000
   11      C       0.0000000000     0.0000000000     0.0000000000
   12      C       0.7479160000     0.4317720000     1.0994460000
   13      C       1.9464250000     1.1237090000     0.7767210000
   14      H       0.4285230000     0.2473780000     2.1360880000
   15      C       2.1375310000     1.2340180000    -0.6125460000
   16      S       0.8161540000     0.4711790000    -1.4868090000
   17      C       2.8884550000     1.6675640000     1.8146090000
   18      H       2.5198420000     1.4547460000     2.8366760000
   19      H       3.0088960000     2.7675430000     1.7262390000
   20      H       3.9012710000     1.2218500000     1.7262280000
   21      H       2.9595870000     1.7086090000    -1.1615750000
   22      H      -1.4177790000    -4.3927130000     0.2168430000
   23      H      -0.5201360000    -4.3923470000    -1.3376520000
   24      H      -0.5401000000    -1.4409370000     0.9352500000
 ----------------------------------------------------------------

   10   -1180.6857422252      8.92e-07  Convergence criterion met
 Total energy in the final basis set =    -1180.6857422252
        RIMP2         total energy =     -1182.7116867294 a.u.

                    Orbital Energies (a.u.)
 --------------------------------------------------------------

 Alpha MOs
 -- Occupied --
-91.9763 -91.9327 -11.2888 -11.2651 -11.2584 -11.2537 -11.2512 -11.2503
-11.2361 -11.2327 -11.2294 -11.2155  -8.9775  -8.9376  -6.6583  -6.6573
 -6.6571  -6.6190  -6.6180  -6.6167  -1.2066  -1.1543  -1.0596  -1.0282
 -1.0035  -0.9636  -0.9114  -0.9031  -0.8087  -0.7600  -0.7440  -0.7083
 -0.6518  -0.6390  -0.6155  -0.5942  -0.5886  -0.5704  -0.5633  -0.5566
 -0.5402  -0.5282  -0.5247  -0.5094  -0.4836  -0.4647  -0.4434  -0.4403
 -0.3500  -0.3408  -0.3198  -0.2717

          Ground-State Mulliken Net Atomic Charges

     Atom                 Charge (a.u.)
  ----------------------------------------
      1 C                    -0.071420
      2 C                    -0.327481
      3 C                    -0.043448
      4 H                     0.175010
      5 C                     0.108848
      6 S                    -0.209495
      7 C                    -0.308193
      8 H                     0.122608
      9 H                     0.104046
     10 H                     0.118755
     11 C                    -0.181529
     12 C                    -0.134887
     13 C                    -0.024078
     14 H                     0.196398
     15 C                    -0.162951
     16 S                     0.007177
     17 C                    -0.275790
     18 H                     0.105798
     19 H                     0.121881
     20 H                     0.107310
     21 H                     0.202134
     22 H                     0.104193
     23 H                     0.107271
     24 H                     0.157840
  ----------------------------------------
  Sum of atomic charges =     0.000000

                    Cartesian Multipole Moments
 -----------------------------------------------------------------
    Charge (ESU x 10^10)
                -0.0000
    Dipole Moment (Debye)
         X       4.6151      Y       0.8132      Z       3.7931
       Tot       6.0289
    Quadrupole Moments (Debye-Ang)
        XX     -82.0984     XY       2.9514     YY     -83.2817
        XZ       0.5604     YZ      -2.4920     ZZ     -85.8717

 Total job time:  738.58s(wall), 734.24s(cpu)
        *  Thank you very much for using Q-Chem.  Have a nice day.  *
