 Q-Chem 5.4, Q-Chem, Inc., Pleasanton, CA (2021)
 Q-Chem 5.4.0 for Intel X86 EM64T Linux

User input:
--------------------------------------------------------------
$molecule
0 1
C	0.264439	-3.866725	0.728625
C	-0.209794	-3.703963	-0.575519
C	-0.364749	-2.357056	-1.002336
H	-0.446060	-4.561092	-1.224165
C	0.000000	-1.440664	0.000000
S	0.528253	-2.286957	1.451336
C	-0.862253	-1.978743	-2.369885
H	-1.082953	-2.878678	-2.976034
H	-0.115513	-1.376015	-2.927887
H	-1.792797	-1.375728	-2.317620
C	0.000000	0.000000	0.000000
C	0.661577	0.555087	1.099446
C	1.721724	1.444630	0.776721
H	0.379056	0.318032	2.136088
C	1.890772	1.586449	-0.612546
S	0.721935	0.605744	-1.486809
C	2.555004	2.143805	1.814609
H	2.228946	1.870211	2.836676
H	2.482605	3.247987	1.726239
H	3.629830	1.880735	1.726228
H	2.617927	2.196579	-1.161575
H	1.225465	-4.392713	0.745219
H	-0.461378	-4.392347	1.359038
H	1.014907	-1.440937	-0.369273
$end

$rem
JOBTYPE		SP
EXCHANGE	HF
CORRELATION	pRIMP2
BASIS		cc-pvtz
METHOD		rimp2
AUX_BASIS	rimp2-cc-pvtz
SOLVENT_METHOD	PCM
PURECART	11111
SYMMETRY	false
MEM_TOTAL	110000
SCF_CONVERGENCE = 6
THRESH=10
$end

$solvent
dielectric 4.90
$end
--------------------------------------------------------------

             Standard Nuclear Orientation (Angstroms)
    I     Atom           X                Y                Z
 ----------------------------------------------------------------
    1      C       0.2644390000    -3.8667250000     0.7286250000
    2      C      -0.2097940000    -3.7039630000    -0.5755190000
    3      C      -0.3647490000    -2.3570560000    -1.0023360000
    4      H      -0.4460600000    -4.5610920000    -1.2241650000
    5      C       0.0000000000    -1.4406640000     0.0000000000
    6      S       0.5282530000    -2.2869570000     1.4513360000
    7      C      -0.8622530000    -1.9787430000    -2.3698850000
    8      H      -1.0829530000    -2.8786780000    -2.9760340000
    9      H      -0.1155130000    -1.3760150000    -2.9278870000
   10      H      -1.7927970000    -1.3757280000    -2.3176200000
   11      C       0.0000000000     0.0000000000     0.0000000000
   12      C       0.6615770000     0.5550870000     1.0994460000
   13      C       1.7217240000     1.4446300000     0.7767210000
   14      H       0.3790560000     0.3180320000     2.1360880000
   15      C       1.8907720000     1.5864490000    -0.6125460000
   16      S       0.7219350000     0.6057440000    -1.4868090000
   17      C       2.5550040000     2.1438050000     1.8146090000
   18      H       2.2289460000     1.8702110000     2.8366760000
   19      H       2.4826050000     3.2479870000     1.7262390000
   20      H       3.6298300000     1.8807350000     1.7262280000
   21      H       2.6179270000     2.1965790000    -1.1615750000
   22      H       1.2254650000    -4.3927130000     0.7452190000
   23      H      -0.4613780000    -4.3923470000     1.3590380000
   24      H       1.0149070000    -1.4409370000    -0.3692730000
 ----------------------------------------------------------------

   10   -1180.7085463721      8.15e-07  Convergence criterion met
 Total energy in the final basis set =    -1180.7085463721
        RIMP2         total energy =     -1182.7274792612 a.u.

                    Orbital Energies (a.u.)
 --------------------------------------------------------------

 Alpha MOs
 -- Occupied --
-91.9752 -91.9422 -11.2737 -11.2725 -11.2586 -11.2567 -11.2527 -11.2453
-11.2398 -11.2304 -11.2292 -11.2193  -8.9769  -8.9467  -6.6577  -6.6570
 -6.6564  -6.6281  -6.6271  -6.6258  -1.2082  -1.1536  -1.0616  -1.0275
 -1.0060  -0.9569  -0.9147  -0.9028  -0.8090  -0.7741  -0.7234  -0.7030
 -0.6570  -0.6459  -0.6135  -0.5900  -0.5827  -0.5746  -0.5698  -0.5519
 -0.5424  -0.5362  -0.5169  -0.5115  -0.4876  -0.4667  -0.4586  -0.4380
 -0.3591  -0.3412  -0.3283  -0.2610

          Ground-State Mulliken Net Atomic Charges

     Atom                 Charge (a.u.)
  ----------------------------------------
      1 C                    -0.081543
      2 C                    -0.314404
      3 C                    -0.069863
      4 H                     0.175718
      5 C                     0.115288
      6 S                    -0.194084
      7 C                    -0.293968
      8 H                     0.115618
      9 H                     0.108490
     10 H                     0.115925
     11 C                    -0.046116
     12 C                    -0.258725
     13 C                     0.031499
     14 H                     0.185377
     15 C                    -0.230451
     16 S                    -0.003294
     17 C                    -0.267851
     18 H                     0.103747
     19 H                     0.109019
     20 H                     0.108072
     21 H                     0.198798
     22 H                     0.109838
     23 H                     0.111290
     24 H                     0.171618
  ----------------------------------------
  Sum of atomic charges =     0.000000

                    Cartesian Multipole Moments
 -----------------------------------------------------------------
    Charge (ESU x 10^10)
                -0.0000
    Dipole Moment (Debye)
         X       1.6460      Y      -0.0078      Z      -0.8719
       Tot       1.8627
    Quadrupole Moments (Debye-Ang)
        XX     -84.8505     XY       5.5541     YY     -79.7869
        XZ       1.0868     YZ       4.6707     ZZ     -85.7804

 Total job time:  683.06s(wall), 678.33s(cpu)
        *  Thank you very much for using Q-Chem.  Have a nice day.  *
