 Q-Chem 5.4, Q-Chem, Inc., Pleasanton, CA (2021)
 Q-Chem 5.4.0 for Intel X86 EM64T Linux

User input:
--------------------------------------------------------------
$molecule
0 1
C	-0.386946	-3.866725	-0.671636
C	0.306544	-3.703963	0.530345
C	0.533261	-2.357056	0.923770
H	0.651857	-4.561092	1.128109
C	-0.000000	-1.440664	-0.000000
S	-0.772250	-2.286957	-1.337557
C	1.260680	-1.978743	2.184153
H	1.583283	-2.878678	2.742769
H	0.622180	-1.376015	2.863347
H	2.168011	-1.375728	1.971094
C	0.000000	0.000000	0.000000
C	0.365003	0.782674	1.099446
C	0.949885	2.036912	0.776721
H	0.209135	0.448431	2.136088
C	1.043159	2.236886	-0.612546
S	0.398297	0.854094	-1.486809
C	1.409609	3.022738	1.814609
H	1.229726	2.636980	2.836676
H	0.877346	3.992870	1.726239
H	2.494910	3.238558	1.726228
H	1.444334	3.097160	-1.161575
H	-1.336254	-4.392713	-0.521098
H	0.218374	-4.392347	-1.418509
H	0.935365	-1.440391	-0.539900
$end

$rem
JOBTYPE		SP
EXCHANGE	HF
CORRELATION	pRIMP2
BASIS		cc-pvtz
METHOD		rimp2
AUX_BASIS	rimp2-cc-pvtz
SOLVENT_METHOD	PCM
PURECART	11111
SYMMETRY	false
MEM_TOTAL	110000
SCF_CONVERGENCE = 6
THRESH=10
$end

$solvent
dielectric 4.90
$end
--------------------------------------------------------------

             Standard Nuclear Orientation (Angstroms)
    I     Atom           X                Y                Z
 ----------------------------------------------------------------
    1      C      -0.3869460000    -3.8667250000    -0.6716360000
    2      C       0.3065440000    -3.7039630000     0.5303450000
    3      C       0.5332610000    -2.3570560000     0.9237700000
    4      H       0.6518570000    -4.5610920000     1.1281090000
    5      C       0.0000000000    -1.4406640000     0.0000000000
    6      S      -0.7722500000    -2.2869570000    -1.3375570000
    7      C       1.2606800000    -1.9787430000     2.1841530000
    8      H       1.5832830000    -2.8786780000     2.7427690000
    9      H       0.6221800000    -1.3760150000     2.8633470000
   10      H       2.1680110000    -1.3757280000     1.9710940000
   11      C       0.0000000000     0.0000000000     0.0000000000
   12      C       0.3650030000     0.7826740000     1.0994460000
   13      C       0.9498850000     2.0369120000     0.7767210000
   14      H       0.2091350000     0.4484310000     2.1360880000
   15      C       1.0431590000     2.2368860000    -0.6125460000
   16      S       0.3982970000     0.8540940000    -1.4868090000
   17      C       1.4096090000     3.0227380000     1.8146090000
   18      H       1.2297260000     2.6369800000     2.8366760000
   19      H       0.8773460000     3.9928700000     1.7262390000
   20      H       2.4949100000     3.2385580000     1.7262280000
   21      H       1.4443340000     3.0971600000    -1.1615750000
   22      H      -1.3362540000    -4.3927130000    -0.5210980000
   23      H       0.2183740000    -4.3923470000    -1.4185090000
   24      H       0.9353650000    -1.4403910000    -0.5399000000
 ----------------------------------------------------------------

   10   -1180.7472624474      5.01e-07  Convergence criterion met
 Total energy in the final basis set =    -1180.7472624474
        RIMP2         total energy =     -1182.7555463071 a.u.

                    Orbital Energies (a.u.)
 --------------------------------------------------------------

 Alpha MOs
 -- Occupied --
-91.9810 -91.9425 -11.2841 -11.2650 -11.2606 -11.2599 -11.2505 -11.2430
-11.2347 -11.2328 -11.2289 -11.2223  -8.9812  -8.9474  -6.6622  -6.6616
 -6.6610  -6.6288  -6.6278  -6.6265  -1.2027  -1.1530  -1.0604  -1.0307
 -1.0000  -0.9633  -0.9147  -0.9001  -0.8144  -0.7624  -0.7373  -0.7047
 -0.6543  -0.6441  -0.6110  -0.5930  -0.5815  -0.5703  -0.5645  -0.5526
 -0.5466  -0.5346  -0.5220  -0.5057  -0.4845  -0.4777  -0.4643  -0.4461
 -0.3572  -0.3433  -0.3247  -0.2666

          Ground-State Mulliken Net Atomic Charges

     Atom                 Charge (a.u.)
  ----------------------------------------
      1 C                    -0.075752
      2 C                    -0.313194
      3 C                    -0.060909
      4 H                     0.178948
      5 C                     0.110588
      6 S                    -0.178910
      7 C                    -0.296143
      8 H                     0.119548
      9 H                     0.103718
     10 H                     0.112716
     11 C                    -0.007590
     12 C                    -0.336496
     13 C                     0.063819
     14 H                     0.190052
     15 C                    -0.268454
     16 S                     0.006119
     17 C                    -0.271031
     18 H                     0.101518
     19 H                     0.109477
     20 H                     0.108315
     21 H                     0.196710
     22 H                     0.113438
     23 H                     0.110688
     24 H                     0.182825
  ----------------------------------------
  Sum of atomic charges =     0.000000

                    Cartesian Multipole Moments
 -----------------------------------------------------------------
    Charge (ESU x 10^10)
                -0.0000
    Dipole Moment (Debye)
         X       2.6541      Y      -0.1186      Z       3.2214
       Tot       4.1756
    Quadrupole Moments (Debye-Ang)
        XX     -90.0826     XY       1.0226     YY     -74.8954
        XZ       0.4132     YZ      -1.3183     ZZ     -85.7588

 Total job time:  666.37s(wall), 662.03s(cpu)
        *  Thank you very much for using Q-Chem.  Have a nice day.  *
