 Q-Chem 5.4, Q-Chem, Inc., Pleasanton, CA (2021)
 Q-Chem 5.4.0 for Intel X86 EM64T Linux

User input:
--------------------------------------------------------------
$molecule
0 1
C	0.671636	-3.866725	-0.386946
C	-0.530345	-3.703963	0.306544
C	-0.923770	-2.357056	0.533261
H	-1.128109	-4.561092	0.651857
C	-0.000000	-1.440664	-0.000000
S	1.337557	-2.286957	-0.772250
C	-2.184153	-1.978743	1.260680
H	-2.742769	-2.878678	1.583283
H	-2.863347	-1.376015	0.622180
H	-1.971094	-1.375728	2.168011
C	0.000000	0.000000	0.000000
C	0.365003	0.782674	1.099446
C	0.949885	2.036912	0.776721
H	0.209135	0.448431	2.136088
C	1.043159	2.236886	-0.612546
S	0.398297	0.854094	-1.486809
C	1.409609	3.022738	1.814609
H	1.229726	2.636980	2.836676
H	0.877346	3.992870	1.726239
H	2.494910	3.238558	1.726228
H	1.444334	3.097160	-1.161575
H	0.521098	-4.392713	-1.336254
H	1.418509	-4.392347	0.218374
H	0.539900	-1.440391	0.935365
$end

$rem
JOBTYPE		SP
EXCHANGE	HF
CORRELATION	pRIMP2
BASIS		cc-pvtz
METHOD		rimp2
AUX_BASIS	rimp2-cc-pvtz
SOLVENT_METHOD	PCM
PURECART	11111
SYMMETRY	false
MEM_TOTAL	110000
SCF_CONVERGENCE = 6
THRESH=10
$end

$solvent
dielectric 4.90
$end
--------------------------------------------------------------

             Standard Nuclear Orientation (Angstroms)
    I     Atom           X                Y                Z
 ----------------------------------------------------------------
    1      C       0.6716360000    -3.8667250000    -0.3869460000
    2      C      -0.5303450000    -3.7039630000     0.3065440000
    3      C      -0.9237700000    -2.3570560000     0.5332610000
    4      H      -1.1281090000    -4.5610920000     0.6518570000
    5      C       0.0000000000    -1.4406640000     0.0000000000
    6      S       1.3375570000    -2.2869570000    -0.7722500000
    7      C      -2.1841530000    -1.9787430000     1.2606800000
    8      H      -2.7427690000    -2.8786780000     1.5832830000
    9      H      -2.8633470000    -1.3760150000     0.6221800000
   10      H      -1.9710940000    -1.3757280000     2.1680110000
   11      C       0.0000000000     0.0000000000     0.0000000000
   12      C       0.3650030000     0.7826740000     1.0994460000
   13      C       0.9498850000     2.0369120000     0.7767210000
   14      H       0.2091350000     0.4484310000     2.1360880000
   15      C       1.0431590000     2.2368860000    -0.6125460000
   16      S       0.3982970000     0.8540940000    -1.4868090000
   17      C       1.4096090000     3.0227380000     1.8146090000
   18      H       1.2297260000     2.6369800000     2.8366760000
   19      H       0.8773460000     3.9928700000     1.7262390000
   20      H       2.4949100000     3.2385580000     1.7262280000
   21      H       1.4443340000     3.0971600000    -1.1615750000
   22      H       0.5210980000    -4.3927130000    -1.3362540000
   23      H       1.4185090000    -4.3923470000     0.2183740000
   24      H       0.5399000000    -1.4403910000     0.9353650000
 ----------------------------------------------------------------

   10   -1180.7481558165      5.32e-07  Convergence criterion met
 Total energy in the final basis set =    -1180.7481558165
        RIMP2         total energy =     -1182.7560895486 a.u.

                    Orbital Energies (a.u.)
 --------------------------------------------------------------

 Alpha MOs
 -- Occupied --
-91.9817 -91.9424 -11.2801 -11.2640 -11.2611 -11.2539 -11.2508 -11.2415
-11.2402 -11.2319 -11.2292 -11.2170  -8.9815  -8.9469  -6.6624  -6.6618
 -6.6613  -6.6283  -6.6272  -6.6260  -1.1994  -1.1530  -1.0580  -1.0276
 -1.0033  -0.9603  -0.9111  -0.9009  -0.8155  -0.7586  -0.7341  -0.7020
 -0.6613  -0.6418  -0.6099  -0.5884  -0.5829  -0.5703  -0.5635  -0.5517
 -0.5413  -0.5309  -0.5123  -0.5065  -0.4911  -0.4779  -0.4632  -0.4460
 -0.3560  -0.3407  -0.3175  -0.2722

          Ground-State Mulliken Net Atomic Charges

     Atom                 Charge (a.u.)
  ----------------------------------------
      1 C                    -0.075250
      2 C                    -0.329776
      3 C                    -0.035443
      4 H                     0.174628
      5 C                     0.059428
      6 S                    -0.168523
      7 C                    -0.271832
      8 H                     0.113965
      9 H                     0.108857
     10 H                     0.099718
     11 C                    -0.057189
     12 C                    -0.243488
     13 C                     0.022851
     14 H                     0.183544
     15 C                    -0.236729
     16 S                     0.008761
     17 C                    -0.271452
     18 H                     0.101509
     19 H                     0.107954
     20 H                     0.108303
     21 H                     0.196331
     22 H                     0.109897
     23 H                     0.110232
     24 H                     0.183704
  ----------------------------------------
  Sum of atomic charges =     0.000000

                    Cartesian Multipole Moments
 -----------------------------------------------------------------
    Charge (ESU x 10^10)
                -0.0000
    Dipole Moment (Debye)
         X      -0.8627      Y       0.4534      Z       3.3141
       Tot       3.4544
    Quadrupole Moments (Debye-Ang)
        XX     -89.4829     XY       6.2801     YY     -76.2179
        XZ       0.5466     YZ      -1.9388     ZZ     -86.0683

 Total job time:  646.00s(wall), 642.87s(cpu)
        *  Thank you very much for using Q-Chem.  Have a nice day.  *
