 Q-Chem 5.4, Q-Chem, Inc., Pleasanton, CA (2021)
 Q-Chem 5.4.0 for Intel X86 EM64T Linux

User input:
--------------------------------------------------------------
$molecule
0 1
C	-0.593324	-3.866725	-0.498788
C	0.469446	-3.703963	0.393517
C	0.817050	-2.357056	0.685674
H	0.998381	-4.561092	0.837128
C	0.000000	-1.440664	0.000000
S	-1.183149	-2.286957	-0.992768
C	1.931676	-1.978743	1.621254
H	2.425882	-2.878678	2.035845
H	1.563980	-1.376015	2.477868
H	2.711417	-1.375728	1.110719
C	0.000000	0.000000	0.000000
C	0.223548	0.834165	1.099446
C	0.581748	2.170912	0.776721
H	0.128089	0.477934	2.136088
C	0.638880	2.384045	-0.612546
S	0.243934	0.910282	-1.486809
C	0.863301	3.221592	1.814609
H	0.753137	2.810458	2.836676
H	0.170663	4.084559	1.726239
H	1.894637	3.622593	1.726228
H	0.884575	3.300913	-1.161575
H	-1.433894	-4.392713	-0.032646
H	-0.279954	-4.392347	-1.407651
H	0.694299	-1.440391	-0.827254
$end

$rem
JOBTYPE		SP
EXCHANGE	HF
CORRELATION	pRIMP2
BASIS		cc-pvtz
METHOD		rimp2
AUX_BASIS	rimp2-cc-pvtz
SOLVENT_METHOD	PCM
PURECART	11111
SYMMETRY	false
MEM_TOTAL	110000
SCF_CONVERGENCE = 6
THRESH=10
$end

$solvent
dielectric 4.90
$end
--------------------------------------------------------------

             Standard Nuclear Orientation (Angstroms)
    I     Atom           X                Y                Z
 ----------------------------------------------------------------
    1      C      -0.5933240000    -3.8667250000    -0.4987880000
    2      C       0.4694460000    -3.7039630000     0.3935170000
    3      C       0.8170500000    -2.3570560000     0.6856740000
    4      H       0.9983810000    -4.5610920000     0.8371280000
    5      C       0.0000000000    -1.4406640000     0.0000000000
    6      S      -1.1831490000    -2.2869570000    -0.9927680000
    7      C       1.9316760000    -1.9787430000     1.6212540000
    8      H       2.4258820000    -2.8786780000     2.0358450000
    9      H       1.5639800000    -1.3760150000     2.4778680000
   10      H       2.7114170000    -1.3757280000     1.1107190000
   11      C       0.0000000000     0.0000000000     0.0000000000
   12      C       0.2235480000     0.8341650000     1.0994460000
   13      C       0.5817480000     2.1709120000     0.7767210000
   14      H       0.1280890000     0.4779340000     2.1360880000
   15      C       0.6388800000     2.3840450000    -0.6125460000
   16      S       0.2439340000     0.9102820000    -1.4868090000
   17      C       0.8633010000     3.2215920000     1.8146090000
   18      H       0.7531370000     2.8104580000     2.8366760000
   19      H       0.1706630000     4.0845590000     1.7262390000
   20      H       1.8946370000     3.6225930000     1.7262280000
   21      H       0.8845750000     3.3009130000    -1.1615750000
   22      H      -1.4338940000    -4.3927130000    -0.0326460000
   23      H      -0.2799540000    -4.3923470000    -1.4076510000
   24      H       0.6942990000    -1.4403910000    -0.8272540000
 ----------------------------------------------------------------

   10   -1180.7557625452      5.08e-07  Convergence criterion met
 Total energy in the final basis set =    -1180.7557625452
        RIMP2         total energy =     -1182.7611473687 a.u.

                    Orbital Energies (a.u.)
 --------------------------------------------------------------

 Alpha MOs
 -- Occupied --
-91.9831 -91.9416 -11.2824 -11.2642 -11.2626 -11.2571 -11.2506 -11.2418
-11.2372 -11.2319 -11.2289 -11.2209  -8.9832  -8.9465  -6.6641  -6.6636
 -6.6629  -6.6278  -6.6268  -6.6255  -1.2002  -1.1534  -1.0595  -1.0284
 -1.0011  -0.9636  -0.9133  -0.9003  -0.8139  -0.7610  -0.7419  -0.7034
 -0.6537  -0.6387  -0.6109  -0.5901  -0.5791  -0.5705  -0.5666  -0.5545
 -0.5449  -0.5321  -0.5178  -0.5063  -0.4880  -0.4791  -0.4634  -0.4486
 -0.3558  -0.3433  -0.3209  -0.2717

          Ground-State Mulliken Net Atomic Charges

     Atom                 Charge (a.u.)
  ----------------------------------------
      1 C                    -0.074701
      2 C                    -0.321880
      3 C                    -0.033272
      4 H                     0.177549
      5 C                     0.098078
      6 S                    -0.177585
      7 C                    -0.274752
      8 H                     0.116965
      9 H                     0.102544
     10 H                     0.108222
     11 C                    -0.068237
     12 C                    -0.277336
     13 C                     0.036838
     14 H                     0.191547
     15 C                    -0.251202
     16 S                     0.008803
     17 C                    -0.272132
     18 H                     0.101904
     19 H                     0.109255
     20 H                     0.108078
     21 H                     0.197866
     22 H                     0.113276
     23 H                     0.109849
     24 H                     0.170322
  ----------------------------------------
  Sum of atomic charges =     0.000000

                    Cartesian Multipole Moments
 -----------------------------------------------------------------
    Charge (ESU x 10^10)
                -0.0000
    Dipole Moment (Debye)
         X       2.8472      Y       0.2928      Z       2.4581
       Tot       3.7729
    Quadrupole Moments (Debye-Ang)
        XX     -91.3412     XY      -0.9704     YY     -74.0486
        XZ       0.3547     YZ      -0.2229     ZZ     -85.7148

 Total job time:  649.52s(wall), 647.55s(cpu)
        *  Thank you very much for using Q-Chem.  Have a nice day.  *
