 Q-Chem 5.4, Q-Chem, Inc., Pleasanton, CA (2021)
 Q-Chem 5.4.0 for Intel X86 EM64T Linux

User input:
--------------------------------------------------------------
$molecule
0 1
C	-0.135301	-3.866725	0.763228
C	0.106073	-3.703963	-0.603311
C	0.185286	-2.357056	-1.050423
H	0.225783	-4.561092	-1.283188
C	0.000000	-1.440664	0.000000
S	-0.268187	-2.286957	1.521021
C	0.438209	-1.978743	-2.483507
H	0.550153	-2.878678	-3.118798
H	1.363906	-1.376015	-2.593381
H	-0.393798	-1.375728	-2.903516
C	0.000000	0.000000	0.000000
C	0.223548	0.834165	1.099446
C	0.581748	2.170912	0.776721
H	0.128089	0.477934	2.136088
C	0.638880	2.384045	-0.612546
S	0.243934	0.910282	-1.486809
C	0.863301	3.221592	1.814609
H	0.753137	2.810458	2.836676
H	0.170663	4.084559	1.726239
H	1.894637	3.622593	1.726228
H	0.884575	3.300913	-1.161575
H	0.688674	-4.392713	1.258111
H	-1.079084	-4.392347	0.946272
H	1.063572	-1.440937	0.187654
$end

$rem
JOBTYPE		SP
EXCHANGE	HF
CORRELATION	pRIMP2
BASIS		cc-pvtz
METHOD		rimp2
AUX_BASIS	rimp2-cc-pvtz
SOLVENT_METHOD	PCM
PURECART	11111
SYMMETRY	false
MEM_TOTAL	110000
SCF_CONVERGENCE = 6
THRESH=10
$end

$solvent
dielectric 4.90
$end
--------------------------------------------------------------

             Standard Nuclear Orientation (Angstroms)
    I     Atom           X                Y                Z
 ----------------------------------------------------------------
    1      C      -0.1353010000    -3.8667250000     0.7632280000
    2      C       0.1060730000    -3.7039630000    -0.6033110000
    3      C       0.1852860000    -2.3570560000    -1.0504230000
    4      H       0.2257830000    -4.5610920000    -1.2831880000
    5      C       0.0000000000    -1.4406640000     0.0000000000
    6      S      -0.2681870000    -2.2869570000     1.5210210000
    7      C       0.4382090000    -1.9787430000    -2.4835070000
    8      H       0.5501530000    -2.8786780000    -3.1187980000
    9      H       1.3639060000    -1.3760150000    -2.5933810000
   10      H      -0.3937980000    -1.3757280000    -2.9035160000
   11      C       0.0000000000     0.0000000000     0.0000000000
   12      C       0.2235480000     0.8341650000     1.0994460000
   13      C       0.5817480000     2.1709120000     0.7767210000
   14      H       0.1280890000     0.4779340000     2.1360880000
   15      C       0.6388800000     2.3840450000    -0.6125460000
   16      S       0.2439340000     0.9102820000    -1.4868090000
   17      C       0.8633010000     3.2215920000     1.8146090000
   18      H       0.7531370000     2.8104580000     2.8366760000
   19      H       0.1706630000     4.0845590000     1.7262390000
   20      H       1.8946370000     3.6225930000     1.7262280000
   21      H       0.8845750000     3.3009130000    -1.1615750000
   22      H       0.6886740000    -4.3927130000     1.2581110000
   23      H      -1.0790840000    -4.3923470000     0.9462720000
   24      H       1.0635720000    -1.4409370000     0.1876540000
 ----------------------------------------------------------------

   10   -1180.7544871847      4.95e-07  Convergence criterion met
 Total energy in the final basis set =    -1180.7544871847
        RIMP2         total energy =     -1182.7614677655 a.u.

                    Orbital Energies (a.u.)
 --------------------------------------------------------------

 Alpha MOs
 -- Occupied --
-91.9811 -91.9463 -11.2905 -11.2658 -11.2625 -11.2530 -11.2499 -11.2443
-11.2324 -11.2297 -11.2275 -11.2230  -8.9813  -8.9509  -6.6622  -6.6616
 -6.6609  -6.6323  -6.6313  -6.6300  -1.2034  -1.1521  -1.0611  -1.0286
 -1.0069  -0.9557  -0.9162  -0.9018  -0.8142  -0.7724  -0.7175  -0.7031
 -0.6627  -0.6483  -0.6113  -0.5900  -0.5826  -0.5719  -0.5683  -0.5543
 -0.5425  -0.5340  -0.5164  -0.5101  -0.4904  -0.4821  -0.4572  -0.4454
 -0.3588  -0.3417  -0.3265  -0.2643

          Ground-State Mulliken Net Atomic Charges

     Atom                 Charge (a.u.)
  ----------------------------------------
      1 C                    -0.074763
      2 C                    -0.315099
      3 C                    -0.049571
      4 H                     0.179054
      5 C                     0.109661
      6 S                    -0.185719
      7 C                    -0.308580
      8 H                     0.120241
      9 H                     0.113586
     10 H                     0.112907
     11 C                     0.004509
     12 C                    -0.320748
     13 C                     0.046691
     14 H                     0.176884
     15 C                    -0.282747
     16 S                     0.007990
     17 C                    -0.271158
     18 H                     0.102646
     19 H                     0.108523
     20 H                     0.108081
     21 H                     0.196292
     22 H                     0.111575
     23 H                     0.113838
     24 H                     0.195909
  ----------------------------------------
  Sum of atomic charges =     0.000000

                    Cartesian Multipole Moments
 -----------------------------------------------------------------
    Charge (ESU x 10^10)
                -0.0000
    Dipole Moment (Debye)
         X       1.6577      Y      -0.5413      Z      -0.9302
       Tot       1.9764
    Quadrupole Moments (Debye-Ang)
        XX     -91.1488     XY       0.3816     YY     -73.9187
        XZ       0.4791     YZ       4.2963     ZZ     -85.4545

 Total job time:  654.19s(wall), 651.60s(cpu)
        *  Thank you very much for using Q-Chem.  Have a nice day.  *
