 Q-Chem 5.4, Q-Chem, Inc., Pleasanton, CA (2021)
 Q-Chem 5.4.0 for Intel X86 EM64T Linux

User input:
--------------------------------------------------------------
$molecule
0 1
C	-0.670924	-3.866725	-0.388181
C	0.530648	-3.703963	0.306020
C	0.923703	-2.357056	0.533378
H	1.128579	-4.561092	0.651043
C	-0.000000	-1.440664	-0.000000
S	-1.337567	-2.286957	-0.772234
C	2.183857	-1.978743	1.261192
H	2.742548	-2.878678	1.583666
H	1.970497	-1.376015	2.168641
H	2.863099	-1.375728	0.623012
C	0.000000	0.000000	0.000000
C	0.149995	0.850475	1.099446
C	0.390327	2.213354	0.776721
H	0.085947	0.487279	2.136088
C	0.428665	2.430655	-0.612546
S	0.163670	0.928078	-1.486809
C	0.579235	3.284574	1.814609
H	0.505323	2.865404	2.836676
H	-0.185980	4.083890	1.726239
H	1.571698	3.773937	1.726228
H	0.593515	3.365448	-1.161575
H	-1.417779	-4.392713	0.216843
H	-0.520136	-4.392347	-1.337652
H	-0.540100	-1.440937	0.935250
$end

$rem
JOBTYPE		SP
EXCHANGE	HF
CORRELATION	pRIMP2
BASIS		cc-pvtz
METHOD		rimp2
AUX_BASIS	rimp2-cc-pvtz
SOLVENT_METHOD	PCM
PURECART	11111
SYMMETRY	false
MEM_TOTAL	110000
SCF_CONVERGENCE = 6
THRESH=10
$end

$solvent
dielectric 4.90
$end
--------------------------------------------------------------

             Standard Nuclear Orientation (Angstroms)
    I     Atom           X                Y                Z
 ----------------------------------------------------------------
    1      C      -0.6709240000    -3.8667250000    -0.3881810000
    2      C       0.5306480000    -3.7039630000     0.3060200000
    3      C       0.9237030000    -2.3570560000     0.5333780000
    4      H       1.1285790000    -4.5610920000     0.6510430000
    5      C       0.0000000000    -1.4406640000     0.0000000000
    6      S      -1.3375670000    -2.2869570000    -0.7722340000
    7      C       2.1838570000    -1.9787430000     1.2611920000
    8      H       2.7425480000    -2.8786780000     1.5836660000
    9      H       1.9704970000    -1.3760150000     2.1686410000
   10      H       2.8630990000    -1.3757280000     0.6230120000
   11      C       0.0000000000     0.0000000000     0.0000000000
   12      C       0.1499950000     0.8504750000     1.0994460000
   13      C       0.3903270000     2.2133540000     0.7767210000
   14      H       0.0859470000     0.4872790000     2.1360880000
   15      C       0.4286650000     2.4306550000    -0.6125460000
   16      S       0.1636700000     0.9280780000    -1.4868090000
   17      C       0.5792350000     3.2845740000     1.8146090000
   18      H       0.5053230000     2.8654040000     2.8366760000
   19      H      -0.1859800000     4.0838900000     1.7262390000
   20      H       1.5716980000     3.7739370000     1.7262280000
   21      H       0.5935150000     3.3654480000    -1.1615750000
   22      H      -1.4177790000    -4.3927130000     0.2168430000
   23      H      -0.5201360000    -4.3923470000    -1.3376520000
   24      H      -0.5401000000    -1.4409370000     0.9352500000
 ----------------------------------------------------------------

   10   -1180.7614259543      5.07e-07  Convergence criterion met
 Total energy in the final basis set =    -1180.7614259543
        RIMP2         total energy =     -1182.7670911402 a.u.

                    Orbital Energies (a.u.)
 --------------------------------------------------------------

 Alpha MOs
 -- Occupied --
-91.9808 -91.9422 -11.2825 -11.2638 -11.2631 -11.2567 -11.2510 -11.2417
-11.2414 -11.2318 -11.2294 -11.2201  -8.9807  -8.9469  -6.6616  -6.6610
 -6.6605  -6.6282  -6.6272  -6.6260  -1.1989  -1.1535  -1.0585  -1.0272
 -1.0043  -0.9613  -0.9123  -0.9010  -0.8161  -0.7607  -0.7331  -0.7049
 -0.6601  -0.6428  -0.6107  -0.5902  -0.5825  -0.5710  -0.5629  -0.5528
 -0.5419  -0.5307  -0.5165  -0.5065  -0.4880  -0.4808  -0.4618  -0.4475
 -0.3558  -0.3419  -0.3171  -0.2767

          Ground-State Mulliken Net Atomic Charges

     Atom                 Charge (a.u.)
  ----------------------------------------
      1 C                    -0.076558
      2 C                    -0.326236
      3 C                    -0.030596
      4 H                     0.176822
      5 C                     0.089668
      6 S                    -0.174948
      7 C                    -0.268205
      8 H                     0.115945
      9 H                     0.098301
     10 H                     0.111720
     11 C                    -0.073766
     12 C                    -0.258048
     13 C                     0.021609
     14 H                     0.188171
     15 C                    -0.242865
     16 S                     0.006405
     17 C                    -0.272141
     18 H                     0.101613
     19 H                     0.108779
     20 H                     0.108243
     21 H                     0.196777
     22 H                     0.111653
     23 H                     0.111583
     24 H                     0.176076
  ----------------------------------------
  Sum of atomic charges =     0.000000

                    Cartesian Multipole Moments
 -----------------------------------------------------------------
    Charge (ESU x 10^10)
                -0.0000
    Dipole Moment (Debye)
         X       2.0169      Y       0.3836      Z       3.4099
       Tot       3.9803
    Quadrupole Moments (Debye-Ang)
        XX     -91.1164     XY      -0.4755     YY     -73.8147
        XZ       0.1124     YZ      -1.8814     ZZ     -86.3415

 Total job time:  655.39s(wall), 651.83s(cpu)
        *  Thank you very much for using Q-Chem.  Have a nice day.  *
