 Q-Chem 5.4, Q-Chem, Inc., Pleasanton, CA (2021)
 Q-Chem 5.4.0 for Intel X86 EM64T Linux

User input:
--------------------------------------------------------------
$molecule
0 1
C	-0.498788	-3.866725	0.593324
C	0.393517	-3.703963	-0.469446
C	0.685674	-2.357056	-0.817050
H	0.837128	-4.561092	-0.998381
C	0.000000	-1.440664	0.000000
S	-0.992768	-2.286957	1.183149
C	1.621254	-1.978743	-1.931676
H	2.035845	-2.878678	-2.425882
H	2.477868	-1.376015	-1.563980
H	1.110719	-1.375728	-2.711417
C	0.000000	0.000000	0.000000
C	0.223548	0.834165	1.099446
C	0.581748	2.170912	0.776721
H	0.128089	0.477934	2.136088
C	0.638880	2.384045	-0.612546
S	0.243934	0.910282	-1.486809
C	0.863301	3.221592	1.814609
H	0.753137	2.810458	2.836676
H	0.170663	4.084559	1.726239
H	1.894637	3.622593	1.726228
H	0.884575	3.300913	-1.161575
H	-0.032646	-4.392713	1.433894
H	-1.407651	-4.392347	0.279954
H	-0.827254	-1.440391	-0.694299
$end

$rem
JOBTYPE		SP
EXCHANGE	HF
CORRELATION	pRIMP2
BASIS		cc-pvtz
METHOD		rimp2
AUX_BASIS	rimp2-cc-pvtz
SOLVENT_METHOD	PCM
PURECART	11111
SYMMETRY	false
MEM_TOTAL	110000
SCF_CONVERGENCE = 6
THRESH=10
$end

$solvent
dielectric 4.90
$end
--------------------------------------------------------------

             Standard Nuclear Orientation (Angstroms)
    I     Atom           X                Y                Z
 ----------------------------------------------------------------
    1      C      -0.4987880000    -3.8667250000     0.5933240000
    2      C       0.3935170000    -3.7039630000    -0.4694460000
    3      C       0.6856740000    -2.3570560000    -0.8170500000
    4      H       0.8371280000    -4.5610920000    -0.9983810000
    5      C       0.0000000000    -1.4406640000     0.0000000000
    6      S      -0.9927680000    -2.2869570000     1.1831490000
    7      C       1.6212540000    -1.9787430000    -1.9316760000
    8      H       2.0358450000    -2.8786780000    -2.4258820000
    9      H       2.4778680000    -1.3760150000    -1.5639800000
   10      H       1.1107190000    -1.3757280000    -2.7114170000
   11      C       0.0000000000     0.0000000000     0.0000000000
   12      C       0.2235480000     0.8341650000     1.0994460000
   13      C       0.5817480000     2.1709120000     0.7767210000
   14      H       0.1280890000     0.4779340000     2.1360880000
   15      C       0.6388800000     2.3840450000    -0.6125460000
   16      S       0.2439340000     0.9102820000    -1.4868090000
   17      C       0.8633010000     3.2215920000     1.8146090000
   18      H       0.7531370000     2.8104580000     2.8366760000
   19      H       0.1706630000     4.0845590000     1.7262390000
   20      H       1.8946370000     3.6225930000     1.7262280000
   21      H       0.8845750000     3.3009130000    -1.1615750000
   22      H      -0.0326460000    -4.3927130000     1.4338940000
   23      H      -1.4076510000    -4.3923470000     0.2799540000
   24      H      -0.8272540000    -1.4403910000    -0.6942990000
 ----------------------------------------------------------------

   10   -1180.7521519030      5.04e-07  Convergence criterion met
 Total energy in the final basis set =    -1180.7521519030
        RIMP2         total energy =     -1182.7593643288 a.u.

                    Orbital Energies (a.u.)
 --------------------------------------------------------------

 Alpha MOs
 -- Occupied --
-91.9832 -91.9439 -11.2829 -11.2647 -11.2611 -11.2577 -11.2501 -11.2423
-11.2352 -11.2309 -11.2280 -11.2208  -8.9832  -8.9484  -6.6641  -6.6636
 -6.6630  -6.6298  -6.6288  -6.6275  -1.2002  -1.1529  -1.0598  -1.0258
 -1.0057  -0.9595  -0.9142  -0.9013  -0.8128  -0.7701  -0.7265  -0.7053
 -0.6547  -0.6405  -0.6106  -0.5925  -0.5784  -0.5731  -0.5693  -0.5528
 -0.5420  -0.5317  -0.5146  -0.5089  -0.4897  -0.4797  -0.4598  -0.4460
 -0.3564  -0.3422  -0.3218  -0.2699

          Ground-State Mulliken Net Atomic Charges

     Atom                 Charge (a.u.)
  ----------------------------------------
      1 C                    -0.073198
      2 C                    -0.325737
      3 C                    -0.040726
      4 H                     0.177782
      5 C                     0.112919
      6 S                    -0.179207
      7 C                    -0.284526
      8 H                     0.115380
      9 H                     0.117290
     10 H                     0.103655
     11 C                    -0.094344
     12 C                    -0.238684
     13 C                     0.020975
     14 H                     0.186654
     15 C                    -0.244604
     16 S                     0.002114
     17 C                    -0.272124
     18 H                     0.102854
     19 H                     0.108056
     20 H                     0.107613
     21 H                     0.197463
     22 H                     0.111864
     23 H                     0.112310
     24 H                     0.176224
  ----------------------------------------
  Sum of atomic charges =     0.000000

                    Cartesian Multipole Moments
 -----------------------------------------------------------------
    Charge (ESU x 10^10)
                -0.0000
    Dipole Moment (Debye)
         X       1.4251      Y       0.1845      Z      -0.9996
       Tot       1.7504
    Quadrupole Moments (Debye-Ang)
        XX     -90.7071     XY       1.5304     YY     -74.1777
        XZ      -0.0371     YZ       4.5993     ZZ     -86.0785

 Total job time:  656.63s(wall), 648.92s(cpu)
        *  Thank you very much for using Q-Chem.  Have a nice day.  *
