 Q-Chem 5.4, Q-Chem, Inc., Pleasanton, CA (2021)
 Q-Chem 5.4.0 for Intel X86 EM64T Linux

User input:
--------------------------------------------------------------
$molecule
0 1
C	0.763475	-3.866725	-0.133897
C	-0.603206	-3.703963	0.106669
C	-1.050446	-2.357056	0.185154
H	-1.283024	-4.561092	0.226709
C	0.000000	-1.440664	0.000000
S	1.521018	-2.286957	-0.268206
C	-2.483610	-1.978743	0.437628
H	-3.118875	-2.878678	0.549717
H	-2.903464	-1.376015	-0.394664
H	-2.593726	-1.375728	1.363110
C	0.000000	0.000000	0.000000
C	0.747916	0.431772	1.099446
C	1.946425	1.123709	0.776721
H	0.428523	0.247378	2.136088
C	2.137531	1.234018	-0.612546
S	0.816154	0.471179	-1.486809
C	2.888455	1.667564	1.814609
H	2.519842	1.454746	2.836676
H	3.008896	2.767543	1.726239
H	3.901271	1.221850	1.726228
H	2.959587	1.708609	-1.161575
H	0.946698	-4.392713	-1.077442
H	1.258274	-4.392347	0.690363
H	0.187427	-1.440391	1.063612
$end

$rem
JOBTYPE		SP
EXCHANGE	HF
CORRELATION	pRIMP2
BASIS		cc-pvtz
METHOD		rimp2
AUX_BASIS	rimp2-cc-pvtz
SOLVENT_METHOD	PCM
PURECART	11111
SYMMETRY	false
MEM_TOTAL	110000
SCF_CONVERGENCE = 6
THRESH=10
$end

$solvent
dielectric 4.90
$end
--------------------------------------------------------------

             Standard Nuclear Orientation (Angstroms)
    I     Atom           X                Y                Z
 ----------------------------------------------------------------
    1      C       0.7634750000    -3.8667250000    -0.1338970000
    2      C      -0.6032060000    -3.7039630000     0.1066690000
    3      C      -1.0504460000    -2.3570560000     0.1851540000
    4      H      -1.2830240000    -4.5610920000     0.2267090000
    5      C       0.0000000000    -1.4406640000     0.0000000000
    6      S       1.5210180000    -2.2869570000    -0.2682060000
    7      C      -2.4836100000    -1.9787430000     0.4376280000
    8      H      -3.1188750000    -2.8786780000     0.5497170000
    9      H      -2.9034640000    -1.3760150000    -0.3946640000
   10      H      -2.5937260000    -1.3757280000     1.3631100000
   11      C       0.0000000000     0.0000000000     0.0000000000
   12      C       0.7479160000     0.4317720000     1.0994460000
   13      C       1.9464250000     1.1237090000     0.7767210000
   14      H       0.4285230000     0.2473780000     2.1360880000
   15      C       2.1375310000     1.2340180000    -0.6125460000
   16      S       0.8161540000     0.4711790000    -1.4868090000
   17      C       2.8884550000     1.6675640000     1.8146090000
   18      H       2.5198420000     1.4547460000     2.8366760000
   19      H       3.0088960000     2.7675430000     1.7262390000
   20      H       3.9012710000     1.2218500000     1.7262280000
   21      H       2.9595870000     1.7086090000    -1.1615750000
   22      H       0.9466980000    -4.3927130000    -1.0774420000
   23      H       1.2582740000    -4.3923470000     0.6903630000
   24      H       0.1874270000    -1.4403910000     1.0636120000
 ----------------------------------------------------------------

   10   -1180.6821592531      8.60e-07  Convergence criterion met
 Total energy in the final basis set =    -1180.6821592531
        RIMP2         total energy =     -1182.7047184723 a.u.

                    Orbital Energies (a.u.)
 --------------------------------------------------------------

 Alpha MOs
 -- Occupied --
-91.9780 -91.9330 -11.2888 -11.2624 -11.2528 -11.2522 -11.2503 -11.2464
-11.2354 -11.2307 -11.2283 -11.2087  -8.9788  -8.9382  -6.6596  -6.6587
 -6.6585  -6.6195  -6.6185  -6.6173  -1.2070  -1.1523  -1.0583  -1.0246
 -1.0059  -0.9577  -0.9074  -0.9029  -0.8109  -0.7553  -0.7475  -0.6958
 -0.6578  -0.6366  -0.6120  -0.5919  -0.5797  -0.5723  -0.5635  -0.5497
 -0.5380  -0.5338  -0.5052  -0.5040  -0.4940  -0.4676  -0.4502  -0.4397
 -0.3622  -0.3259  -0.3151  -0.2714

          Ground-State Mulliken Net Atomic Charges

     Atom                 Charge (a.u.)
  ----------------------------------------
      1 C                    -0.089516
      2 C                    -0.336831
      3 C                    -0.068264
      4 H                     0.172087
      5 C                     0.069306
      6 S                    -0.182963
      7 C                    -0.272375
      8 H                     0.112043
      9 H                     0.106029
     10 H                     0.097891
     11 C                    -0.158704
     12 C                    -0.118316
     13 C                    -0.010064
     14 H                     0.184918
     15 C                    -0.167514
     16 S                     0.026331
     17 C                    -0.268571
     18 H                     0.102353
     19 H                     0.108097
     20 H                     0.106936
     21 H                     0.200853
     22 H                     0.110187
     23 H                     0.106844
     24 H                     0.169246
  ----------------------------------------
  Sum of atomic charges =     0.000000

                    Cartesian Multipole Moments
 -----------------------------------------------------------------
    Charge (ESU x 10^10)
                -0.0000
    Dipole Moment (Debye)
         X       0.6302      Y       0.9849      Z       2.7329
       Tot       2.9725
    Quadrupole Moments (Debye-Ang)
        XX     -82.2325     XY       8.6847     YY     -84.8058
        XZ       0.7790     YZ      -1.1517     ZZ     -85.1564

 Total job time:  691.77s(wall), 689.00s(cpu)
        *  Thank you very much for using Q-Chem.  Have a nice day.  *
