 Q-Chem 5.4, Q-Chem, Inc., Pleasanton, CA (2021)
 Q-Chem 5.4.0 for Intel X86 EM64T Linux

User input:
--------------------------------------------------------------
$molecule
0 1
C	-0.763475	-3.866725	0.133897
C	0.603206	-3.703963	-0.106669
C	1.050446	-2.357056	-0.185154
H	1.283024	-4.561092	-0.226709
C	0.000000	-1.440664	0.000000
S	-1.521018	-2.286957	0.268206
C	2.483610	-1.978743	-0.437628
H	3.118875	-2.878678	-0.549717
H	2.903464	-1.376015	0.394664
H	2.593726	-1.375728	-1.363110
C	0.000000	0.000000	0.000000
C	0.295399	0.811508	1.099446
C	0.768742	2.111949	0.776721
H	0.169256	0.464952	2.136088
C	0.844232	2.319291	-0.612546
S	0.322342	0.885558	-1.486809
C	1.140796	3.134091	1.814609
H	0.995218	2.734123	2.836676
H	0.526006	4.054142	1.726239
H	2.203157	3.443680	1.726228
H	1.168902	3.211257	-1.161575
H	-0.946698	-4.392713	1.077442
H	-1.258274	-4.392347	-0.690363
H	0.187427	-1.440937	1.063612
$end

$rem
JOBTYPE		SP
EXCHANGE	HF
CORRELATION	pRIMP2
BASIS		cc-pvtz
METHOD		rimp2
AUX_BASIS	rimp2-cc-pvtz
SOLVENT_METHOD	PCM
PURECART	11111
SYMMETRY	false
MEM_TOTAL	110000
SCF_CONVERGENCE = 6
THRESH=10
$end

$solvent
dielectric 4.90
$end
--------------------------------------------------------------

             Standard Nuclear Orientation (Angstroms)
    I     Atom           X                Y                Z
 ----------------------------------------------------------------
    1      C      -0.7634750000    -3.8667250000     0.1338970000
    2      C       0.6032060000    -3.7039630000    -0.1066690000
    3      C       1.0504460000    -2.3570560000    -0.1851540000
    4      H       1.2830240000    -4.5610920000    -0.2267090000
    5      C       0.0000000000    -1.4406640000     0.0000000000
    6      S      -1.5210180000    -2.2869570000     0.2682060000
    7      C       2.4836100000    -1.9787430000    -0.4376280000
    8      H       3.1188750000    -2.8786780000    -0.5497170000
    9      H       2.9034640000    -1.3760150000     0.3946640000
   10      H       2.5937260000    -1.3757280000    -1.3631100000
   11      C       0.0000000000     0.0000000000     0.0000000000
   12      C       0.2953990000     0.8115080000     1.0994460000
   13      C       0.7687420000     2.1119490000     0.7767210000
   14      H       0.1692560000     0.4649520000     2.1360880000
   15      C       0.8442320000     2.3192910000    -0.6125460000
   16      S       0.3223420000     0.8855580000    -1.4868090000
   17      C       1.1407960000     3.1340910000     1.8146090000
   18      H       0.9952180000     2.7341230000     2.8366760000
   19      H       0.5260060000     4.0541420000     1.7262390000
   20      H       2.2031570000     3.4436800000     1.7262280000
   21      H       1.1689020000     3.2112570000    -1.1615750000
   22      H      -0.9466980000    -4.3927130000     1.0774420000
   23      H      -1.2582740000    -4.3923470000    -0.6903630000
   24      H       0.1874270000    -1.4409370000     1.0636120000
 ----------------------------------------------------------------

   10   -1180.7549707428      5.33e-07  Convergence criterion met
 Total energy in the final basis set =    -1180.7549707428
        RIMP2         total energy =     -1182.7621280189 a.u.

                    Orbital Energies (a.u.)
 --------------------------------------------------------------

 Alpha MOs
 -- Occupied --
-91.9810 -91.9387 -11.2789 -11.2672 -11.2628 -11.2543 -11.2514 -11.2456
-11.2397 -11.2306 -11.2298 -11.2191  -8.9809  -8.9435  -6.6619  -6.6613
 -6.6608  -6.6249  -6.6239  -6.6226  -1.1984  -1.1539  -1.0582  -1.0246
 -1.0070  -0.9599  -0.9114  -0.9016  -0.8133  -0.7626  -0.7363  -0.7018
 -0.6606  -0.6403  -0.6105  -0.5888  -0.5795  -0.5727  -0.5666  -0.5508
 -0.5418  -0.5291  -0.5167  -0.5047  -0.4933  -0.4764  -0.4596  -0.4471
 -0.3545  -0.3429  -0.3136  -0.2789

          Ground-State Mulliken Net Atomic Charges

     Atom                 Charge (a.u.)
  ----------------------------------------
      1 C                    -0.077536
      2 C                    -0.327453
      3 C                    -0.015678
      4 H                     0.176246
      5 C                     0.067699
      6 S                    -0.183032
      7 C                    -0.268074
      8 H                     0.114243
      9 H                     0.103219
     10 H                     0.108005
     11 C                    -0.063711
     12 C                    -0.253063
     13 C                     0.029819
     14 H                     0.182073
     15 C                    -0.235690
     16 S                     0.006626
     17 C                    -0.271144
     18 H                     0.102332
     19 H                     0.108605
     20 H                     0.107769
     21 H                     0.197126
     22 H                     0.109928
     23 H                     0.111192
     24 H                     0.170498
  ----------------------------------------
  Sum of atomic charges =     0.000000

                    Cartesian Multipole Moments
 -----------------------------------------------------------------
    Charge (ESU x 10^10)
                -0.0000
    Dipole Moment (Debye)
         X       3.2605      Y       0.6886      Z       1.8634
       Tot       3.8180
    Quadrupole Moments (Debye-Ang)
        XX     -90.7366     XY      -0.4693     YY     -75.1770
        XZ       0.0571     YZ       0.3652     ZZ     -85.8308

 Total job time:  666.84s(wall), 662.10s(cpu)
        *  Thank you very much for using Q-Chem.  Have a nice day.  *
