 Q-Chem 5.4, Q-Chem, Inc., Pleasanton, CA (2021)
 Q-Chem 5.4.0 for Intel X86 EM64T Linux

User input:
--------------------------------------------------------------
$molecule
0 1
C	-0.775127	-3.866725	-0.000713
C	0.612565	-3.703963	-0.000302
C	1.066639	-2.357056	0.000067
H	1.302900	-4.561092	-0.000470
C	-0.000000	-1.440664	-0.000000
S	-1.544483	-2.286957	0.000009
C	2.521872	-1.978743	0.000295
H	3.166949	-2.878678	0.000221
H	2.790821	-1.376015	0.892850
H	2.791023	-1.375728	-0.892005
C	0.000000	0.000000	0.000000
C	0.555137	0.661535	1.099446
C	1.444710	1.721658	0.776721
H	0.318072	0.379023	2.136088
C	1.586563	1.890676	-0.612546
S	0.605781	0.721904	-1.486809
C	2.143920	2.554907	1.814609
H	1.870325	2.228851	2.836676
H	1.880882	3.629742	1.726239
H	3.248098	2.482476	1.726228
H	2.196723	2.617806	-1.161575
H	-1.119411	-4.392713	0.896681
H	-1.119277	-4.392347	-0.898372
H	-0.000115	-1.440937	1.080000
$end

$rem
JOBTYPE		SP
EXCHANGE	HF
CORRELATION	pRIMP2
BASIS		cc-pvtz
METHOD		rimp2
AUX_BASIS	rimp2-cc-pvtz
SOLVENT_METHOD	PCM
PURECART	11111
SYMMETRY	false
MEM_TOTAL	110000
SCF_CONVERGENCE = 6
THRESH=10
$end

$solvent
dielectric 4.90
$end
--------------------------------------------------------------

             Standard Nuclear Orientation (Angstroms)
    I     Atom           X                Y                Z
 ----------------------------------------------------------------
    1      C      -0.7751270000    -3.8667250000    -0.0007130000
    2      C       0.6125650000    -3.7039630000    -0.0003020000
    3      C       1.0666390000    -2.3570560000     0.0000670000
    4      H       1.3029000000    -4.5610920000    -0.0004700000
    5      C       0.0000000000    -1.4406640000     0.0000000000
    6      S      -1.5444830000    -2.2869570000     0.0000090000
    7      C       2.5218720000    -1.9787430000     0.0002950000
    8      H       3.1669490000    -2.8786780000     0.0002210000
    9      H       2.7908210000    -1.3760150000     0.8928500000
   10      H       2.7910230000    -1.3757280000    -0.8920050000
   11      C       0.0000000000     0.0000000000     0.0000000000
   12      C       0.5551370000     0.6615350000     1.0994460000
   13      C       1.4447100000     1.7216580000     0.7767210000
   14      H       0.3180720000     0.3790230000     2.1360880000
   15      C       1.5865630000     1.8906760000    -0.6125460000
   16      S       0.6057810000     0.7219040000    -1.4868090000
   17      C       2.1439200000     2.5549070000     1.8146090000
   18      H       1.8703250000     2.2288510000     2.8366760000
   19      H       1.8808820000     3.6297420000     1.7262390000
   20      H       3.2480980000     2.4824760000     1.7262280000
   21      H       2.1967230000     2.6178060000    -1.1615750000
   22      H      -1.1194110000    -4.3927130000     0.8966810000
   23      H      -1.1192770000    -4.3923470000    -0.8983720000
   24      H      -0.0001150000    -1.4409370000     1.0800000000
 ----------------------------------------------------------------

   10   -1180.7306502641      6.94e-07  Convergence criterion met
 Total energy in the final basis set =    -1180.7306502641
        RIMP2         total energy =     -1182.7446319906 a.u.

                    Orbital Energies (a.u.)
 --------------------------------------------------------------

 Alpha MOs
 -- Occupied --
-91.9800 -91.9342 -11.2764 -11.2685 -11.2608 -11.2536 -11.2524 -11.2514
-11.2374 -11.2310 -11.2295 -11.2172  -8.9804  -8.9392  -6.6612  -6.6606
 -6.6601  -6.6206  -6.6195  -6.6183  -1.2001  -1.1543  -1.0583  -1.0232
 -1.0073  -0.9610  -0.9102  -0.9023  -0.8105  -0.7606  -0.7412  -0.7025
 -0.6583  -0.6384  -0.6112  -0.5905  -0.5805  -0.5733  -0.5661  -0.5512
 -0.5416  -0.5268  -0.5209  -0.5040  -0.4920  -0.4670  -0.4583  -0.4436
 -0.3520  -0.3436  -0.3149  -0.2767

          Ground-State Mulliken Net Atomic Charges

     Atom                 Charge (a.u.)
  ----------------------------------------
      1 C                    -0.075053
      2 C                    -0.327113
      3 C                    -0.028665
      4 H                     0.175487
      5 C                     0.073374
      6 S                    -0.201361
      7 C                    -0.282953
      8 H                     0.119462
      9 H                     0.103065
     10 H                     0.112018
     11 C                    -0.068859
     12 C                    -0.248263
     13 C                     0.040265
     14 H                     0.185186
     15 C                    -0.214480
     16 S                     0.005451
     17 C                    -0.268674
     18 H                     0.102761
     19 H                     0.109618
     20 H                     0.106830
     21 H                     0.199143
     22 H                     0.107102
     23 H                     0.108317
     24 H                     0.167341
  ----------------------------------------
  Sum of atomic charges =     0.000000

                    Cartesian Multipole Moments
 -----------------------------------------------------------------
    Charge (ESU x 10^10)
                -0.0000
    Dipole Moment (Debye)
         X       4.1367      Y       0.9746      Z       2.3983
       Tot       4.8800
    Quadrupole Moments (Debye-Ang)
        XX     -87.3282     XY       1.7899     YY     -78.9626
        XZ       0.2578     YZ      -0.5291     ZZ     -85.7395

 Total job time:  729.67s(wall), 725.08s(cpu)
        *  Thank you very much for using Q-Chem.  Have a nice day.  *
