 Q-Chem 5.4, Q-Chem, Inc., Pleasanton, CA (2021)
 Q-Chem 5.4.0 for Intel X86 EM64T Linux

User input:
--------------------------------------------------------------
$molecule
0 1
C	0.670924	-3.866725	0.388181
C	-0.530648	-3.703963	-0.306020
C	-0.923703	-2.357056	-0.533378
H	-1.128579	-4.561092	-0.651043
C	0.000000	-1.440664	0.000000
S	1.337567	-2.286957	0.772234
C	-2.183857	-1.978743	-1.261192
H	-2.742548	-2.878678	-1.583666
H	-1.970497	-1.376015	-2.168641
H	-2.863099	-1.375728	-0.623012
C	0.000000	0.000000	0.000000
C	0.223548	0.834165	1.099446
C	0.581748	2.170912	0.776721
H	0.128089	0.477934	2.136088
C	0.638880	2.384045	-0.612546
S	0.243934	0.910282	-1.486809
C	0.863301	3.221592	1.814609
H	0.753137	2.810458	2.836676
H	0.170663	4.084559	1.726239
H	1.894637	3.622593	1.726228
H	0.884575	3.300913	-1.161575
H	1.417779	-4.392713	-0.216843
H	0.520136	-4.392347	1.337652
H	-0.540100	-1.440391	0.935250
$end

$rem
JOBTYPE		SP
EXCHANGE	HF
CORRELATION	pRIMP2
BASIS		cc-pvtz
METHOD		rimp2
AUX_BASIS	rimp2-cc-pvtz
SOLVENT_METHOD	PCM
PURECART	11111
SYMMETRY	false
MEM_TOTAL	110000
SCF_CONVERGENCE = 6
THRESH=10
$end

$solvent
dielectric 4.90
$end
--------------------------------------------------------------

             Standard Nuclear Orientation (Angstroms)
    I     Atom           X                Y                Z
 ----------------------------------------------------------------
    1      C       0.6709240000    -3.8667250000     0.3881810000
    2      C      -0.5306480000    -3.7039630000    -0.3060200000
    3      C      -0.9237030000    -2.3570560000    -0.5333780000
    4      H      -1.1285790000    -4.5610920000    -0.6510430000
    5      C       0.0000000000    -1.4406640000     0.0000000000
    6      S       1.3375670000    -2.2869570000     0.7722340000
    7      C      -2.1838570000    -1.9787430000    -1.2611920000
    8      H      -2.7425480000    -2.8786780000    -1.5836660000
    9      H      -1.9704970000    -1.3760150000    -2.1686410000
   10      H      -2.8630990000    -1.3757280000    -0.6230120000
   11      C       0.0000000000     0.0000000000     0.0000000000
   12      C       0.2235480000     0.8341650000     1.0994460000
   13      C       0.5817480000     2.1709120000     0.7767210000
   14      H       0.1280890000     0.4779340000     2.1360880000
   15      C       0.6388800000     2.3840450000    -0.6125460000
   16      S       0.2439340000     0.9102820000    -1.4868090000
   17      C       0.8633010000     3.2215920000     1.8146090000
   18      H       0.7531370000     2.8104580000     2.8366760000
   19      H       0.1706630000     4.0845590000     1.7262390000
   20      H       1.8946370000     3.6225930000     1.7262280000
   21      H       0.8845750000     3.3009130000    -1.1615750000
   22      H       1.4177790000    -4.3927130000    -0.2168430000
   23      H       0.5201360000    -4.3923470000     1.3376520000
   24      H      -0.5401000000    -1.4403910000     0.9352500000
 ----------------------------------------------------------------

   10   -1180.7598517721      5.14e-07  Convergence criterion met
 Total energy in the final basis set =    -1180.7598517721
        RIMP2         total energy =     -1182.7656238230 a.u.

                    Orbital Energies (a.u.)
 --------------------------------------------------------------

 Alpha MOs
 -- Occupied --
-91.9803 -91.9423 -11.2817 -11.2635 -11.2625 -11.2558 -11.2510 -11.2421
-11.2411 -11.2319 -11.2289 -11.2198  -8.9804  -8.9469  -6.6613  -6.6607
 -6.6602  -6.6282  -6.6272  -6.6259  -1.1988  -1.1535  -1.0584  -1.0262
 -1.0068  -0.9581  -0.9131  -0.9010  -0.8150  -0.7656  -0.7309  -0.6998
 -0.6610  -0.6418  -0.6106  -0.5879  -0.5806  -0.5729  -0.5669  -0.5512
 -0.5414  -0.5327  -0.5134  -0.5068  -0.4904  -0.4808  -0.4589  -0.4493
 -0.3558  -0.3422  -0.3165  -0.2752

          Ground-State Mulliken Net Atomic Charges

     Atom                 Charge (a.u.)
  ----------------------------------------
      1 C                    -0.078570
      2 C                    -0.323011
      3 C                    -0.037653
      4 H                     0.176616
      5 C                     0.100978
      6 S                    -0.173373
      7 C                    -0.270054
      8 H                     0.113404
      9 H                     0.105477
     10 H                     0.104579
     11 C                    -0.059392
     12 C                    -0.278602
     13 C                     0.035341
     14 H                     0.184636
     15 C                    -0.243387
     16 S                     0.005064
     17 C                    -0.271579
     18 H                     0.102413
     19 H                     0.107666
     20 H                     0.108936
     21 H                     0.196323
     22 H                     0.112699
     23 H                     0.110120
     24 H                     0.171368
  ----------------------------------------
  Sum of atomic charges =     0.000000

                    Cartesian Multipole Moments
 -----------------------------------------------------------------
    Charge (ESU x 10^10)
                -0.0000
    Dipole Moment (Debye)
         X      -2.0229      Y       0.3925      Z       1.0375
       Tot       2.3071
    Quadrupole Moments (Debye-Ang)
        XX     -91.1868     XY       6.5461     YY     -74.2838
        XZ       0.5964     YZ       1.6950     ZZ     -85.7340

 Total job time:  647.88s(wall), 641.34s(cpu)
        *  Thank you very much for using Q-Chem.  Have a nice day.  *
