 Q-Chem 5.4, Q-Chem, Inc., Pleasanton, CA (2021)
 Q-Chem 5.4.0 for Intel X86 EM64T Linux

User input:
--------------------------------------------------------------
$molecule
0 1
C	-0.775127	-3.866725	-0.000713
C	0.612565	-3.703963	-0.000302
C	1.066639	-2.357056	0.000067
H	1.302900	-4.561092	-0.000470
C	-0.000000	-1.440664	-0.000000
S	-1.544483	-2.286957	0.000009
C	2.521872	-1.978743	0.000295
H	3.166949	-2.878678	0.000221
H	2.790821	-1.376015	0.892850
H	2.791023	-1.375728	-0.892005
C	0.000000	0.000000	0.000000
C	0.555137	0.661535	1.099446
C	1.444710	1.721658	0.776721
H	0.318072	0.379023	2.136088
C	1.586563	1.890676	-0.612546
S	0.605781	0.721904	-1.486809
C	2.143920	2.554907	1.814609
H	1.870325	2.228851	2.836676
H	1.880882	3.629742	1.726239
H	3.248098	2.482476	1.726228
H	2.196723	2.617806	-1.161575
H	-1.119411	-4.392713	0.896681
H	-1.119277	-4.392347	-0.898372
H	0.000115	-1.440391	-1.080000
$end

$rem
JOBTYPE		SP
EXCHANGE	HF
CORRELATION	pRIMP2
BASIS		cc-pvtz
METHOD		rimp2
AUX_BASIS	rimp2-cc-pvtz
SOLVENT_METHOD	PCM
PURECART	11111
SYMMETRY	false
MEM_TOTAL	110000
SCF_CONVERGENCE = 6
THRESH=10
$end

$solvent
dielectric 4.90
$end
--------------------------------------------------------------

             Standard Nuclear Orientation (Angstroms)
    I     Atom           X                Y                Z
 ----------------------------------------------------------------
    1      C      -0.7751270000    -3.8667250000    -0.0007130000
    2      C       0.6125650000    -3.7039630000    -0.0003020000
    3      C       1.0666390000    -2.3570560000     0.0000670000
    4      H       1.3029000000    -4.5610920000    -0.0004700000
    5      C       0.0000000000    -1.4406640000     0.0000000000
    6      S      -1.5444830000    -2.2869570000     0.0000090000
    7      C       2.5218720000    -1.9787430000     0.0002950000
    8      H       3.1669490000    -2.8786780000     0.0002210000
    9      H       2.7908210000    -1.3760150000     0.8928500000
   10      H       2.7910230000    -1.3757280000    -0.8920050000
   11      C       0.0000000000     0.0000000000     0.0000000000
   12      C       0.5551370000     0.6615350000     1.0994460000
   13      C       1.4447100000     1.7216580000     0.7767210000
   14      H       0.3180720000     0.3790230000     2.1360880000
   15      C       1.5865630000     1.8906760000    -0.6125460000
   16      S       0.6057810000     0.7219040000    -1.4868090000
   17      C       2.1439200000     2.5549070000     1.8146090000
   18      H       1.8703250000     2.2288510000     2.8366760000
   19      H       1.8808820000     3.6297420000     1.7262390000
   20      H       3.2480980000     2.4824760000     1.7262280000
   21      H       2.1967230000     2.6178060000    -1.1615750000
   22      H      -1.1194110000    -4.3927130000     0.8966810000
   23      H      -1.1192770000    -4.3923470000    -0.8983720000
   24      H       0.0001150000    -1.4403910000    -1.0800000000
 ----------------------------------------------------------------

   10   -1180.7253762338      6.75e-07  Convergence criterion met
 Total energy in the final basis set =    -1180.7253762338
        RIMP2         total energy =     -1182.7389747929 a.u.

                    Orbital Energies (a.u.)
 --------------------------------------------------------------

 Alpha MOs
 -- Occupied --
-91.9843 -91.9350 -11.2771 -11.2654 -11.2599 -11.2523 -11.2507 -11.2493
-11.2372 -11.2302 -11.2293 -11.2163  -8.9846  -8.9398  -6.6655  -6.6648
 -6.6643  -6.6212  -6.6202  -6.6190  -1.2000  -1.1541  -1.0589  -1.0233
 -1.0030  -0.9652  -0.9116  -0.9006  -0.8072  -0.7635  -0.7445  -0.7067
 -0.6508  -0.6299  -0.6129  -0.5866  -0.5770  -0.5743  -0.5702  -0.5538
 -0.5427  -0.5268  -0.5200  -0.5033  -0.4900  -0.4696  -0.4616  -0.4427
 -0.3526  -0.3438  -0.3147  -0.2757

          Ground-State Mulliken Net Atomic Charges

     Atom                 Charge (a.u.)
  ----------------------------------------
      1 C                    -0.074067
      2 C                    -0.332426
      3 C                    -0.025715
      4 H                     0.174860
      5 C                     0.079477
      6 S                    -0.199316
      7 C                    -0.283968
      8 H                     0.119296
      9 H                     0.107839
     10 H                     0.107494
     11 C                    -0.087210
     12 C                    -0.236662
     13 C                     0.039144
     14 H                     0.188487
     15 C                    -0.218124
     16 S                     0.010009
     17 C                    -0.269793
     18 H                     0.103512
     19 H                     0.109484
     20 H                     0.105920
     21 H                     0.200966
     22 H                     0.108936
     23 H                     0.106431
     24 H                     0.165427
  ----------------------------------------
  Sum of atomic charges =     0.000000

                    Cartesian Multipole Moments
 -----------------------------------------------------------------
    Charge (ESU x 10^10)
                -0.0000
    Dipole Moment (Debye)
         X       4.1640      Y       1.0806      Z       0.8338
       Tot       4.3820
    Quadrupole Moments (Debye-Ang)
        XX     -87.3482     XY       1.8998     YY     -79.1022
        XZ       0.7823     YZ       2.0444     ZZ     -85.5224

 Total job time:  684.47s(wall), 681.48s(cpu)
        *  Thank you very much for using Q-Chem.  Have a nice day.  *
