 Q-Chem 5.4, Q-Chem, Inc., Pleasanton, CA (2021)
 Q-Chem 5.4.0 for Intel X86 EM64T Linux

User input:
--------------------------------------------------------------
$molecule
0 1
C	-0.497696	-3.866725	-0.594240
C	0.393981	-3.703963	0.469057
C	0.685571	-2.357056	0.817136
H	0.837848	-4.561092	0.997777
C	0.000000	-1.440664	0.000000
S	-0.992782	-2.286957	-1.183137
C	1.620802	-1.978743	1.932056
H	2.035506	-2.878678	2.426166
H	1.109943	-1.376015	2.711806
H	2.477350	-1.375728	1.564678
C	0.000000	0.000000	0.000000
C	0.295399	0.811508	1.099446
C	0.768742	2.111949	0.776721
H	0.169256	0.464952	2.136088
C	0.844232	2.319291	-0.612546
S	0.322342	0.885558	-1.486809
C	1.140796	3.134091	1.814609
H	0.995218	2.734123	2.836676
H	0.526006	4.054142	1.726239
H	2.203157	3.443680	1.726228
H	1.168902	3.211257	-1.161575
H	-1.406441	-4.392713	-0.281143
H	-0.031265	-4.392347	-1.434879
H	-0.827402	-1.440937	0.694122
$end

$rem
JOBTYPE		SP
EXCHANGE	HF
CORRELATION	pRIMP2
BASIS		cc-pvtz
METHOD		rimp2
AUX_BASIS	rimp2-cc-pvtz
SOLVENT_METHOD	PCM
PURECART	11111
SYMMETRY	false
MEM_TOTAL	110000
SCF_CONVERGENCE = 6
THRESH=10
$end

$solvent
dielectric 4.90
$end
--------------------------------------------------------------

             Standard Nuclear Orientation (Angstroms)
    I     Atom           X                Y                Z
 ----------------------------------------------------------------
    1      C      -0.4976960000    -3.8667250000    -0.5942400000
    2      C       0.3939810000    -3.7039630000     0.4690570000
    3      C       0.6855710000    -2.3570560000     0.8171360000
    4      H       0.8378480000    -4.5610920000     0.9977770000
    5      C       0.0000000000    -1.4406640000     0.0000000000
    6      S      -0.9927820000    -2.2869570000    -1.1831370000
    7      C       1.6208020000    -1.9787430000     1.9320560000
    8      H       2.0355060000    -2.8786780000     2.4261660000
    9      H       1.1099430000    -1.3760150000     2.7118060000
   10      H       2.4773500000    -1.3757280000     1.5646780000
   11      C       0.0000000000     0.0000000000     0.0000000000
   12      C       0.2953990000     0.8115080000     1.0994460000
   13      C       0.7687420000     2.1119490000     0.7767210000
   14      H       0.1692560000     0.4649520000     2.1360880000
   15      C       0.8442320000     2.3192910000    -0.6125460000
   16      S       0.3223420000     0.8855580000    -1.4868090000
   17      C       1.1407960000     3.1340910000     1.8146090000
   18      H       0.9952180000     2.7341230000     2.8366760000
   19      H       0.5260060000     4.0541420000     1.7262390000
   20      H       2.2031570000     3.4436800000     1.7262280000
   21      H       1.1689020000     3.2112570000    -1.1615750000
   22      H      -1.4064410000    -4.3927130000    -0.2811430000
   23      H      -0.0312650000    -4.3923470000    -1.4348790000
   24      H      -0.8274020000    -1.4409370000     0.6941220000
 ----------------------------------------------------------------

   10   -1180.7512174025      5.27e-07  Convergence criterion met
 Total energy in the final basis set =    -1180.7512174025
        RIMP2         total energy =     -1182.7600597515 a.u.

                    Orbital Energies (a.u.)
 --------------------------------------------------------------

 Alpha MOs
 -- Occupied --
-91.9810 -91.9432 -11.2823 -11.2647 -11.2615 -11.2574 -11.2511 -11.2422
-11.2389 -11.2322 -11.2292 -11.2207  -8.9809  -8.9478  -6.6618  -6.6612
 -6.6607  -6.6292  -6.6282  -6.6270  -1.2002  -1.1532  -1.0590  -1.0289
 -1.0027  -0.9620  -0.9134  -0.9006  -0.8163  -0.7615  -0.7298  -0.7075
 -0.6578  -0.6449  -0.6108  -0.5916  -0.5861  -0.5706  -0.5598  -0.5541
 -0.5419  -0.5327  -0.5198  -0.5065  -0.4834  -0.4783  -0.4641  -0.4458
 -0.3566  -0.3424  -0.3213  -0.2696

          Ground-State Mulliken Net Atomic Charges

     Atom                 Charge (a.u.)
  ----------------------------------------
      1 C                    -0.074287
      2 C                    -0.320508
      3 C                    -0.059957
      4 H                     0.177909
      5 C                     0.113374
      6 S                    -0.177164
      7 C                    -0.283080
      8 H                     0.119690
      9 H                     0.096634
     10 H                     0.115635
     11 C                    -0.048847
     12 C                    -0.300458
     13 C                     0.045053
     14 H                     0.191500
     15 C                    -0.254890
     16 S                     0.012998
     17 C                    -0.272390
     18 H                     0.101330
     19 H                     0.108858
     20 H                     0.108374
     21 H                     0.195869
     22 H                     0.111237
     23 H                     0.111318
     24 H                     0.181804
  ----------------------------------------
  Sum of atomic charges =     0.000000

                    Cartesian Multipole Moments
 -----------------------------------------------------------------
    Charge (ESU x 10^10)
                -0.0000
    Dipole Moment (Debye)
         X       1.5205      Y       0.1343      Z       3.8874
       Tot       4.1764
    Quadrupole Moments (Debye-Ang)
        XX     -90.1591     XY       2.3009     YY     -74.6294
        XZ       0.5747     YZ      -2.5174     ZZ     -86.2773

 Total job time:  660.23s(wall), 653.17s(cpu)
        *  Thank you very much for using Q-Chem.  Have a nice day.  *
