 Q-Chem 5.4, Q-Chem, Inc., Pleasanton, CA (2021)
 Q-Chem 5.4.0 for Intel X86 EM64T Linux

User input:
--------------------------------------------------------------
$molecule
0 1
C	0.670924	-3.866725	0.388181
C	-0.530648	-3.703963	-0.306020
C	-0.923703	-2.357056	-0.533378
H	-1.128579	-4.561092	-0.651043
C	0.000000	-1.440664	0.000000
S	1.337567	-2.286957	0.772234
C	-2.183857	-1.978743	-1.261192
H	-2.742548	-2.878678	-1.583666
H	-1.970497	-1.376015	-2.168641
H	-2.863099	-1.375728	-0.623012
C	0.000000	0.000000	0.000000
C	0.223548	0.834165	1.099446
C	0.581748	2.170912	0.776721
H	0.128089	0.477934	2.136088
C	0.638880	2.384045	-0.612546
S	0.243934	0.910282	-1.486809
C	0.863301	3.221592	1.814609
H	0.753137	2.810458	2.836676
H	0.170663	4.084559	1.726239
H	1.894637	3.622593	1.726228
H	0.884575	3.300913	-1.161575
H	1.417779	-4.392713	-0.216843
H	0.520136	-4.392347	1.337652
H	0.540100	-1.440937	-0.935250
$end

$rem
JOBTYPE		SP
EXCHANGE	HF
CORRELATION	pRIMP2
BASIS		cc-pvtz
METHOD		rimp2
AUX_BASIS	rimp2-cc-pvtz
SOLVENT_METHOD	PCM
PURECART	11111
SYMMETRY	false
MEM_TOTAL	110000
SCF_CONVERGENCE = 6
THRESH=10
$end

$solvent
dielectric 4.90
$end
--------------------------------------------------------------

             Standard Nuclear Orientation (Angstroms)
    I     Atom           X                Y                Z
 ----------------------------------------------------------------
    1      C       0.6709240000    -3.8667250000     0.3881810000
    2      C      -0.5306480000    -3.7039630000    -0.3060200000
    3      C      -0.9237030000    -2.3570560000    -0.5333780000
    4      H      -1.1285790000    -4.5610920000    -0.6510430000
    5      C       0.0000000000    -1.4406640000     0.0000000000
    6      S       1.3375670000    -2.2869570000     0.7722340000
    7      C      -2.1838570000    -1.9787430000    -1.2611920000
    8      H      -2.7425480000    -2.8786780000    -1.5836660000
    9      H      -1.9704970000    -1.3760150000    -2.1686410000
   10      H      -2.8630990000    -1.3757280000    -0.6230120000
   11      C       0.0000000000     0.0000000000     0.0000000000
   12      C       0.2235480000     0.8341650000     1.0994460000
   13      C       0.5817480000     2.1709120000     0.7767210000
   14      H       0.1280890000     0.4779340000     2.1360880000
   15      C       0.6388800000     2.3840450000    -0.6125460000
   16      S       0.2439340000     0.9102820000    -1.4868090000
   17      C       0.8633010000     3.2215920000     1.8146090000
   18      H       0.7531370000     2.8104580000     2.8366760000
   19      H       0.1706630000     4.0845590000     1.7262390000
   20      H       1.8946370000     3.6225930000     1.7262280000
   21      H       0.8845750000     3.3009130000    -1.1615750000
   22      H       1.4177790000    -4.3927130000    -0.2168430000
   23      H       0.5201360000    -4.3923470000     1.3376520000
   24      H       0.5401000000    -1.4409370000    -0.9352500000
 ----------------------------------------------------------------

   10   -1180.7565839973      5.03e-07  Convergence criterion met
 Total energy in the final basis set =    -1180.7565839973
        RIMP2         total energy =     -1182.7613666961 a.u.

                    Orbital Energies (a.u.)
 --------------------------------------------------------------

 Alpha MOs
 -- Occupied --
-91.9843 -91.9428 -11.2809 -11.2637 -11.2621 -11.2558 -11.2508 -11.2409
-11.2381 -11.2318 -11.2284 -11.2191  -8.9843  -8.9473  -6.6652  -6.6646
 -6.6640  -6.6287  -6.6276  -6.6264  -1.1994  -1.1534  -1.0593  -1.0261
 -1.0041  -0.9608  -0.9141  -0.9003  -0.8128  -0.7674  -0.7330  -0.7034
 -0.6546  -0.6369  -0.6108  -0.5899  -0.5766  -0.5740  -0.5688  -0.5534
 -0.5423  -0.5321  -0.5129  -0.5064  -0.4876  -0.4837  -0.4628  -0.4473
 -0.3557  -0.3427  -0.3181  -0.2752

          Ground-State Mulliken Net Atomic Charges

     Atom                 Charge (a.u.)
  ----------------------------------------
      1 C                    -0.076436
      2 C                    -0.323500
      3 C                    -0.050842
      4 H                     0.175861
      5 C                     0.117376
      6 S                    -0.175163
      7 C                    -0.268919
      8 H                     0.113684
      9 H                     0.099711
     10 H                     0.109222
     11 C                    -0.077583
     12 C                    -0.270572
     13 C                     0.040236
     14 H                     0.186901
     15 C                    -0.248030
     16 S                     0.010149
     17 C                    -0.272245
     18 H                     0.102997
     19 H                     0.107963
     20 H                     0.108517
     21 H                     0.197774
     22 H                     0.110877
     23 H                     0.110489
     24 H                     0.171534
  ----------------------------------------
  Sum of atomic charges =     0.000000

                    Cartesian Multipole Moments
 -----------------------------------------------------------------
    Charge (ESU x 10^10)
                -0.0000
    Dipole Moment (Debye)
         X      -1.2208      Y       0.4843      Z      -0.3584
       Tot       1.3614
    Quadrupole Moments (Debye-Ang)
        XX     -90.6885     XY       5.0259     YY     -74.3531
        XZ       0.2319     YZ       4.0059     ZZ     -86.1384

 Total job time:  638.94s(wall), 636.84s(cpu)
        *  Thank you very much for using Q-Chem.  Have a nice day.  *
