 Q-Chem 5.4, Q-Chem, Inc., Pleasanton, CA (2021)
 Q-Chem 5.4.0 for Intel X86 EM64T Linux

User input:
--------------------------------------------------------------
$molecule
0 1
C	0.671636	-3.866725	-0.386946
C	-0.530345	-3.703963	0.306544
C	-0.923770	-2.357056	0.533261
H	-1.128109	-4.561092	0.651857
C	0.000000	-1.440664	0.000000
S	1.337557	-2.286957	-0.772250
C	-2.184153	-1.978743	1.260680
H	-2.742769	-2.878678	1.583283
H	-2.863347	-1.376015	0.622180
H	-1.971094	-1.375728	2.168011
C	0.000000	0.000000	0.000000
C	0.223548	0.834165	1.099446
C	0.581748	2.170912	0.776721
H	0.128089	0.477934	2.136088
C	0.638880	2.384045	-0.612546
S	0.243934	0.910282	-1.486809
C	0.863301	3.221592	1.814609
H	0.753137	2.810458	2.836676
H	0.170663	4.084559	1.726239
H	1.894637	3.622593	1.726228
H	0.884575	3.300913	-1.161575
H	0.521098	-4.392713	-1.336254
H	1.418509	-4.392347	0.218374
H	0.539900	-1.440391	0.935365
$end

$rem
JOBTYPE		SP
EXCHANGE	HF
CORRELATION	pRIMP2
BASIS		cc-pvtz
METHOD		rimp2
AUX_BASIS	rimp2-cc-pvtz
SOLVENT_METHOD	PCM
PURECART	11111
SYMMETRY	false
MEM_TOTAL	110000
SCF_CONVERGENCE = 6
THRESH=10
$end

$solvent
dielectric 4.90
$end
--------------------------------------------------------------

             Standard Nuclear Orientation (Angstroms)
    I     Atom           X                Y                Z
 ----------------------------------------------------------------
    1      C       0.6716360000    -3.8667250000    -0.3869460000
    2      C      -0.5303450000    -3.7039630000     0.3065440000
    3      C      -0.9237700000    -2.3570560000     0.5332610000
    4      H      -1.1281090000    -4.5610920000     0.6518570000
    5      C       0.0000000000    -1.4406640000     0.0000000000
    6      S       1.3375570000    -2.2869570000    -0.7722500000
    7      C      -2.1841530000    -1.9787430000     1.2606800000
    8      H      -2.7427690000    -2.8786780000     1.5832830000
    9      H      -2.8633470000    -1.3760150000     0.6221800000
   10      H      -1.9710940000    -1.3757280000     2.1680110000
   11      C       0.0000000000     0.0000000000     0.0000000000
   12      C       0.2235480000     0.8341650000     1.0994460000
   13      C       0.5817480000     2.1709120000     0.7767210000
   14      H       0.1280890000     0.4779340000     2.1360880000
   15      C       0.6388800000     2.3840450000    -0.6125460000
   16      S       0.2439340000     0.9102820000    -1.4868090000
   17      C       0.8633010000     3.2215920000     1.8146090000
   18      H       0.7531370000     2.8104580000     2.8366760000
   19      H       0.1706630000     4.0845590000     1.7262390000
   20      H       1.8946370000     3.6225930000     1.7262280000
   21      H       0.8845750000     3.3009130000    -1.1615750000
   22      H       0.5210980000    -4.3927130000    -1.3362540000
   23      H       1.4185090000    -4.3923470000     0.2183740000
   24      H       0.5399000000    -1.4403910000     0.9353650000
 ----------------------------------------------------------------

   10   -1180.7576173392      5.07e-07  Convergence criterion met
 Total energy in the final basis set =    -1180.7576173392
        RIMP2         total energy =     -1182.7633312921 a.u.

                    Orbital Energies (a.u.)
 --------------------------------------------------------------

 Alpha MOs
 -- Occupied --
-91.9816 -91.9431 -11.2829 -11.2625 -11.2620 -11.2556 -11.2507 -11.2411
-11.2402 -11.2321 -11.2291 -11.2187  -8.9814  -8.9476  -6.6624  -6.6618
 -6.6613  -6.6290  -6.6280  -6.6267  -1.1992  -1.1531  -1.0583  -1.0278
 -1.0037  -0.9605  -0.9119  -0.9008  -0.8163  -0.7596  -0.7332  -0.7030
 -0.6614  -0.6426  -0.6102  -0.5892  -0.5825  -0.5703  -0.5635  -0.5520
 -0.5418  -0.5309  -0.5134  -0.5061  -0.4910  -0.4805  -0.4629  -0.4470
 -0.3562  -0.3414  -0.3173  -0.2743

          Ground-State Mulliken Net Atomic Charges

     Atom                 Charge (a.u.)
  ----------------------------------------
      1 C                    -0.074983
      2 C                    -0.327589
      3 C                    -0.035654
      4 H                     0.175726
      5 C                     0.073549
      6 S                    -0.170490
      7 C                    -0.269659
      8 H                     0.114067
      9 H                     0.109259
     10 H                     0.099384
     11 C                    -0.060646
     12 C                    -0.251716
     13 C                     0.023840
     14 H                     0.184193
     15 C                    -0.243246
     16 S                     0.008041
     17 C                    -0.272512
     18 H                     0.101475
     19 H                     0.108034
     20 H                     0.108680
     21 H                     0.196090
     22 H                     0.110831
     23 H                     0.111215
     24 H                     0.182111
  ----------------------------------------
  Sum of atomic charges =     0.000000

                    Cartesian Multipole Moments
 -----------------------------------------------------------------
    Charge (ESU x 10^10)
                -0.0000
    Dipole Moment (Debye)
         X      -1.2177      Y       0.3514      Z       3.3292
       Tot       3.5623
    Quadrupole Moments (Debye-Ang)
        XX     -90.6834     XY       4.8438     YY     -74.6077
        XZ       0.3789     YZ      -1.8721     ZZ     -86.1981

 Total job time:  650.61s(wall), 642.67s(cpu)
        *  Thank you very much for using Q-Chem.  Have a nice day.  *
