 Q-Chem 5.4, Q-Chem, Inc., Pleasanton, CA (2021)
 Q-Chem 5.4.0 for Intel X86 EM64T Linux

User input:
--------------------------------------------------------------
$molecule
0 1
C	-0.133897	-3.866725	-0.763475
C	0.106669	-3.703963	0.603206
C	0.185154	-2.357056	1.050446
H	0.226709	-4.561092	1.283024
C	0.000000	-1.440664	0.000000
S	-0.268206	-2.286957	-1.521018
C	0.437628	-1.978743	2.483610
H	0.549717	-2.878678	3.118875
H	-0.394664	-1.376015	2.903464
H	1.363110	-1.375728	2.593726
C	0.000000	0.000000	0.000000
C	0.223548	0.834165	1.099446
C	0.581748	2.170912	0.776721
H	0.128089	0.477934	2.136088
C	0.638880	2.384045	-0.612546
S	0.243934	0.910282	-1.486809
C	0.863301	3.221592	1.814609
H	0.753137	2.810458	2.836676
H	0.170663	4.084559	1.726239
H	1.894637	3.622593	1.726228
H	0.884575	3.300913	-1.161575
H	-1.077442	-4.392713	-0.946698
H	0.690363	-4.392347	-1.258274
H	-1.063612	-1.440937	0.187427
$end

$rem
JOBTYPE		SP
EXCHANGE	HF
CORRELATION	pRIMP2
BASIS		cc-pvtz
METHOD		rimp2
AUX_BASIS	rimp2-cc-pvtz
SOLVENT_METHOD	PCM
PURECART	11111
SYMMETRY	false
MEM_TOTAL	110000
SCF_CONVERGENCE = 6
THRESH=10
$end

$solvent
dielectric 4.90
$end
--------------------------------------------------------------

             Standard Nuclear Orientation (Angstroms)
    I     Atom           X                Y                Z
 ----------------------------------------------------------------
    1      C      -0.1338970000    -3.8667250000    -0.7634750000
    2      C       0.1066690000    -3.7039630000     0.6032060000
    3      C       0.1851540000    -2.3570560000     1.0504460000
    4      H       0.2267090000    -4.5610920000     1.2830240000
    5      C       0.0000000000    -1.4406640000     0.0000000000
    6      S      -0.2682060000    -2.2869570000    -1.5210180000
    7      C       0.4376280000    -1.9787430000     2.4836100000
    8      H       0.5497170000    -2.8786780000     3.1188750000
    9      H      -0.3946640000    -1.3760150000     2.9034640000
   10      H       1.3631100000    -1.3757280000     2.5937260000
   11      C       0.0000000000     0.0000000000     0.0000000000
   12      C       0.2235480000     0.8341650000     1.0994460000
   13      C       0.5817480000     2.1709120000     0.7767210000
   14      H       0.1280890000     0.4779340000     2.1360880000
   15      C       0.6388800000     2.3840450000    -0.6125460000
   16      S       0.2439340000     0.9102820000    -1.4868090000
   17      C       0.8633010000     3.2215920000     1.8146090000
   18      H       0.7531370000     2.8104580000     2.8366760000
   19      H       0.1706630000     4.0845590000     1.7262390000
   20      H       1.8946370000     3.6225930000     1.7262280000
   21      H       0.8845750000     3.3009130000    -1.1615750000
   22      H      -1.0774420000    -4.3927130000    -0.9466980000
   23      H       0.6903630000    -4.3923470000    -1.2582740000
   24      H      -1.0636120000    -1.4409370000     0.1874270000
 ----------------------------------------------------------------

   10   -1180.7498677412      5.10e-07  Convergence criterion met
 Total energy in the final basis set =    -1180.7498677412
        RIMP2         total energy =     -1182.7579359205 a.u.

                    Orbital Energies (a.u.)
 --------------------------------------------------------------

 Alpha MOs
 -- Occupied --
-91.9832 -91.9461 -11.2880 -11.2667 -11.2605 -11.2546 -11.2498 -11.2444
-11.2342 -11.2299 -11.2281 -11.2230  -8.9829  -8.9508  -6.6639  -6.6633
 -6.6627  -6.6322  -6.6311  -6.6299  -1.2023  -1.1522  -1.0602  -1.0321
 -1.0012  -0.9618  -0.9163  -0.8995  -0.8183  -0.7632  -0.7269  -0.7074
 -0.6571  -0.6485  -0.6102  -0.5943  -0.5868  -0.5689  -0.5602  -0.5515
 -0.5445  -0.5359  -0.5239  -0.5024  -0.4843  -0.4799  -0.4694  -0.4430
 -0.3611  -0.3435  -0.3235  -0.2632

          Ground-State Mulliken Net Atomic Charges

     Atom                 Charge (a.u.)
  ----------------------------------------
      1 C                    -0.074554
      2 C                    -0.314997
      3 C                    -0.063211
      4 H                     0.179346
      5 C                     0.141044
      6 S                    -0.180011
      7 C                    -0.302254
      8 H                     0.122589
      9 H                     0.101954
     10 H                     0.115040
     11 C                    -0.045447
     12 C                    -0.300685
     13 C                     0.051751
     14 H                     0.189021
     15 C                    -0.284111
     16 S                     0.013234
     17 C                    -0.272247
     18 H                     0.100543
     19 H                     0.108388
     20 H                     0.108521
     21 H                     0.195840
     22 H                     0.112324
     23 H                     0.113712
     24 H                     0.184210
  ----------------------------------------
  Sum of atomic charges =     0.000000

                    Cartesian Multipole Moments
 -----------------------------------------------------------------
    Charge (ESU x 10^10)
                -0.0000
    Dipole Moment (Debye)
         X      -0.0755      Y      -0.4416      Z       3.8998
       Tot       3.9254
    Quadrupole Moments (Debye-Ang)
        XX     -90.9942     XY       3.3415     YY     -73.6405
        XZ       0.6314     YZ      -2.5577     ZZ     -85.7715

 Total job time:  674.66s(wall), 665.05s(cpu)
        *  Thank you very much for using Q-Chem.  Have a nice day.  *
