 Q-Chem 5.4, Q-Chem, Inc., Pleasanton, CA (2021)
 Q-Chem 5.4.0 for Intel X86 EM64T Linux

User input:
--------------------------------------------------------------
$molecule
0 1
C	-0.728625	-3.866725	0.264439
C	0.575519	-3.703963	-0.209794
C	1.002336	-2.357056	-0.364749
H	1.224165	-4.561092	-0.446060
C	-0.000000	-1.440664	-0.000000
S	-1.451336	-2.286957	0.528253
C	2.369885	-1.978743	-0.862253
H	2.976034	-2.878678	-1.082953
H	2.927887	-1.376015	-0.115513
H	2.317620	-1.375728	-1.792797
C	0.000000	0.000000	0.000000
C	0.365003	0.782674	1.099446
C	0.949885	2.036912	0.776721
H	0.209135	0.448431	2.136088
C	1.043159	2.236886	-0.612546
S	0.398297	0.854094	-1.486809
C	1.409609	3.022738	1.814609
H	1.229726	2.636980	2.836676
H	0.877346	3.992870	1.726239
H	2.494910	3.238558	1.726228
H	1.444334	3.097160	-1.161575
H	-0.745219	-4.392713	1.225465
H	-1.359038	-4.392347	-0.461378
H	0.369273	-1.440937	1.014907
$end

$rem
JOBTYPE		SP
EXCHANGE	HF
CORRELATION	pRIMP2
BASIS		cc-pvtz
METHOD		rimp2
AUX_BASIS	rimp2-cc-pvtz
SOLVENT_METHOD	PCM
PURECART	11111
SYMMETRY	false
MEM_TOTAL	110000
SCF_CONVERGENCE = 6
THRESH=10
$end

$solvent
dielectric 4.90
$end
--------------------------------------------------------------

             Standard Nuclear Orientation (Angstroms)
    I     Atom           X                Y                Z
 ----------------------------------------------------------------
    1      C      -0.7286250000    -3.8667250000     0.2644390000
    2      C       0.5755190000    -3.7039630000    -0.2097940000
    3      C       1.0023360000    -2.3570560000    -0.3647490000
    4      H       1.2241650000    -4.5610920000    -0.4460600000
    5      C       0.0000000000    -1.4406640000     0.0000000000
    6      S      -1.4513360000    -2.2869570000     0.5282530000
    7      C       2.3698850000    -1.9787430000    -0.8622530000
    8      H       2.9760340000    -2.8786780000    -1.0829530000
    9      H       2.9278870000    -1.3760150000    -0.1155130000
   10      H       2.3176200000    -1.3757280000    -1.7927970000
   11      C       0.0000000000     0.0000000000     0.0000000000
   12      C       0.3650030000     0.7826740000     1.0994460000
   13      C       0.9498850000     2.0369120000     0.7767210000
   14      H       0.2091350000     0.4484310000     2.1360880000
   15      C       1.0431590000     2.2368860000    -0.6125460000
   16      S       0.3982970000     0.8540940000    -1.4868090000
   17      C       1.4096090000     3.0227380000     1.8146090000
   18      H       1.2297260000     2.6369800000     2.8366760000
   19      H       0.8773460000     3.9928700000     1.7262390000
   20      H       2.4949100000     3.2385580000     1.7262280000
   21      H       1.4443340000     3.0971600000    -1.1615750000
   22      H      -0.7452190000    -4.3927130000     1.2254650000
   23      H      -1.3590380000    -4.3923470000    -0.4613780000
   24      H       0.3692730000    -1.4409370000     1.0149070000
 ----------------------------------------------------------------

   10   -1180.7477262094      5.67e-07  Convergence criterion met
 Total energy in the final basis set =    -1180.7477262094
        RIMP2         total energy =     -1182.7569469703 a.u.

                    Orbital Energies (a.u.)
 --------------------------------------------------------------

 Alpha MOs
 -- Occupied --
-91.9815 -91.9382 -11.2783 -11.2671 -11.2628 -11.2536 -11.2515 -11.2446
-11.2395 -11.2299 -11.2298 -11.2186  -8.9815  -8.9430  -6.6624  -6.6618
 -6.6613  -6.6244  -6.6234  -6.6221  -1.1990  -1.1537  -1.0583  -1.0240
 -1.0076  -0.9592  -0.9112  -0.9018  -0.8121  -0.7640  -0.7353  -0.7009
 -0.6608  -0.6401  -0.6103  -0.5879  -0.5796  -0.5732  -0.5670  -0.5512
 -0.5419  -0.5293  -0.5171  -0.5048  -0.4935  -0.4741  -0.4591  -0.4465
 -0.3539  -0.3438  -0.3153  -0.2745

          Ground-State Mulliken Net Atomic Charges

     Atom                 Charge (a.u.)
  ----------------------------------------
      1 C                    -0.075369
      2 C                    -0.327711
      3 C                    -0.023522
      4 H                     0.176462
      5 C                     0.066219
      6 S                    -0.187005
      7 C                    -0.272546
      8 H                     0.114743
      9 H                     0.105718
     10 H                     0.109549
     11 C                    -0.058415
     12 C                    -0.249826
     13 C                     0.028252
     14 H                     0.181915
     15 C                    -0.235996
     16 S                     0.007698
     17 C                    -0.270623
     18 H                     0.102496
     19 H                     0.108465
     20 H                     0.107395
     21 H                     0.196953
     22 H                     0.109174
     23 H                     0.110636
     24 H                     0.175337
  ----------------------------------------
  Sum of atomic charges =     0.000000

                    Cartesian Multipole Moments
 -----------------------------------------------------------------
    Charge (ESU x 10^10)
                -0.0000
    Dipole Moment (Debye)
         X       3.4703      Y       0.6512      Z       1.3783
       Tot       3.7903
    Quadrupole Moments (Debye-Ang)
        XX     -90.2082     XY       0.1183     YY     -76.1624
        XZ       0.1859     YZ       1.0245     ZZ     -85.6146

 Total job time:  669.10s(wall), 664.39s(cpu)
        *  Thank you very much for using Q-Chem.  Have a nice day.  *
