 Q-Chem 5.4, Q-Chem, Inc., Pleasanton, CA (2021)
 Q-Chem 5.4.0 for Intel X86 EM64T Linux

User input:
--------------------------------------------------------------
$molecule
0 1
C	0.135301	-3.866725	-0.763228
C	-0.106073	-3.703963	0.603311
C	-0.185286	-2.357056	1.050423
H	-0.225783	-4.561092	1.283188
C	-0.000000	-1.440664	-0.000000
S	0.268187	-2.286957	-1.521021
C	-0.438209	-1.978743	2.483507
H	-0.550153	-2.878678	3.118798
H	-1.363906	-1.376015	2.593381
H	0.393798	-1.375728	2.903516
C	0.000000	0.000000	0.000000
C	0.365003	0.782674	1.099446
C	0.949885	2.036912	0.776721
H	0.209135	0.448431	2.136088
C	1.043159	2.236886	-0.612546
S	0.398297	0.854094	-1.486809
C	1.409609	3.022738	1.814609
H	1.229726	2.636980	2.836676
H	0.877346	3.992870	1.726239
H	2.494910	3.238558	1.726228
H	1.444334	3.097160	-1.161575
H	-0.688674	-4.392713	-1.258111
H	1.079084	-4.392347	-0.946272
H	-1.063572	-1.440937	-0.187654
$end

$rem
JOBTYPE		SP
EXCHANGE	HF
CORRELATION	pRIMP2
BASIS		cc-pvtz
METHOD		rimp2
AUX_BASIS	rimp2-cc-pvtz
SOLVENT_METHOD	PCM
PURECART	11111
SYMMETRY	false
MEM_TOTAL	110000
SCF_CONVERGENCE = 6
THRESH=10
$end

$solvent
dielectric 4.90
$end
--------------------------------------------------------------

             Standard Nuclear Orientation (Angstroms)
    I     Atom           X                Y                Z
 ----------------------------------------------------------------
    1      C       0.1353010000    -3.8667250000    -0.7632280000
    2      C      -0.1060730000    -3.7039630000     0.6033110000
    3      C      -0.1852860000    -2.3570560000     1.0504230000
    4      H      -0.2257830000    -4.5610920000     1.2831880000
    5      C       0.0000000000    -1.4406640000     0.0000000000
    6      S       0.2681870000    -2.2869570000    -1.5210210000
    7      C      -0.4382090000    -1.9787430000     2.4835070000
    8      H      -0.5501530000    -2.8786780000     3.1187980000
    9      H      -1.3639060000    -1.3760150000     2.5933810000
   10      H       0.3937980000    -1.3757280000     2.9035160000
   11      C       0.0000000000     0.0000000000     0.0000000000
   12      C       0.3650030000     0.7826740000     1.0994460000
   13      C       0.9498850000     2.0369120000     0.7767210000
   14      H       0.2091350000     0.4484310000     2.1360880000
   15      C       1.0431590000     2.2368860000    -0.6125460000
   16      S       0.3982970000     0.8540940000    -1.4868090000
   17      C       1.4096090000     3.0227380000     1.8146090000
   18      H       1.2297260000     2.6369800000     2.8366760000
   19      H       0.8773460000     3.9928700000     1.7262390000
   20      H       2.4949100000     3.2385580000     1.7262280000
   21      H       1.4443340000     3.0971600000    -1.1615750000
   22      H      -0.6886740000    -4.3927130000    -1.2581110000
   23      H       1.0790840000    -4.3923470000    -0.9462720000
   24      H      -1.0635720000    -1.4409370000    -0.1876540000
 ----------------------------------------------------------------

   10   -1180.7388532666      5.39e-07  Convergence criterion met
 Total energy in the final basis set =    -1180.7388532666
        RIMP2         total energy =     -1182.7494507099 a.u.

                    Orbital Energies (a.u.)
 --------------------------------------------------------------

 Alpha MOs
 -- Occupied --
-91.9830 -91.9454 -11.2838 -11.2656 -11.2581 -11.2578 -11.2499 -11.2431
-11.2340 -11.2324 -11.2281 -11.2214  -8.9829  -8.9500  -6.6639  -6.6632
 -6.6626  -6.6314  -6.6304  -6.6291  -1.2017  -1.1525  -1.0595  -1.0321
 -1.0001  -0.9628  -0.9155  -0.8996  -0.8175  -0.7619  -0.7311  -0.7061
 -0.6547  -0.6457  -0.6096  -0.5942  -0.5856  -0.5682  -0.5640  -0.5495
 -0.5464  -0.5351  -0.5225  -0.5030  -0.4847  -0.4769  -0.4696  -0.4415
 -0.3608  -0.3428  -0.3235  -0.2612

          Ground-State Mulliken Net Atomic Charges

     Atom                 Charge (a.u.)
  ----------------------------------------
      1 C                    -0.076840
      2 C                    -0.319476
      3 C                    -0.041505
      4 H                     0.178170
      5 C                     0.113002
      6 S                    -0.177577
      7 C                    -0.302449
      8 H                     0.121914
      9 H                     0.110918
     10 H                     0.104812
     11 C                    -0.053786
     12 C                    -0.274721
     13 C                     0.040297
     14 H                     0.190705
     15 C                    -0.266717
     16 S                     0.007023
     17 C                    -0.271305
     18 H                     0.100471
     19 H                     0.108450
     20 H                     0.107927
     21 H                     0.197756
     22 H                     0.111321
     23 H                     0.113855
     24 H                     0.177754
  ----------------------------------------
  Sum of atomic charges =     0.000000

                    Cartesian Multipole Moments
 -----------------------------------------------------------------
    Charge (ESU x 10^10)
                -0.0000
    Dipole Moment (Debye)
         X      -0.5894      Y      -0.2160      Z       3.5758
       Tot       3.6305
    Quadrupole Moments (Debye-Ang)
        XX     -90.0477     XY       5.9021     YY     -75.0381
        XZ       0.5737     YZ      -2.1650     ZZ     -85.5008

 Total job time:  665.50s(wall), 661.99s(cpu)
        *  Thank you very much for using Q-Chem.  Have a nice day.  *
