 Q-Chem 5.4, Q-Chem, Inc., Pleasanton, CA (2021)
 Q-Chem 5.4.0 for Intel X86 EM64T Linux

User input:
--------------------------------------------------------------
$molecule
0 1
C	-0.671636	-3.866725	0.386946
C	0.530345	-3.703963	-0.306544
C	0.923770	-2.357056	-0.533261
H	1.128109	-4.561092	-0.651857
C	0.000000	-1.440664	0.000000
S	-1.337557	-2.286957	0.772250
C	2.184153	-1.978743	-1.260680
H	2.742769	-2.878678	-1.583283
H	2.863347	-1.376015	-0.622180
H	1.971094	-1.375728	-2.168011
C	0.000000	0.000000	0.000000
C	0.431829	0.747884	1.099446
C	1.123799	1.946373	0.776721
H	0.247423	0.428497	2.136088
C	1.234147	2.137457	-0.612546
S	0.471221	0.816130	-1.486809
C	1.667694	2.888380	1.814609
H	1.454874	2.519768	2.836676
H	1.222009	3.901210	1.726239
H	2.767675	3.008788	1.726228
H	1.708773	2.959493	-1.161575
H	-0.521098	-4.392713	1.336254
H	-1.418509	-4.392347	-0.218374
H	-0.539900	-1.440391	-0.935365
$end

$rem
JOBTYPE		SP
EXCHANGE	HF
CORRELATION	pRIMP2
BASIS		cc-pvtz
METHOD		rimp2
AUX_BASIS	rimp2-cc-pvtz
SOLVENT_METHOD	PCM
PURECART	11111
SYMMETRY	false
MEM_TOTAL	110000
SCF_CONVERGENCE = 6
THRESH=10
$end

$solvent
dielectric 4.90
$end
--------------------------------------------------------------

             Standard Nuclear Orientation (Angstroms)
    I     Atom           X                Y                Z
 ----------------------------------------------------------------
    1      C      -0.6716360000    -3.8667250000     0.3869460000
    2      C       0.5303450000    -3.7039630000    -0.3065440000
    3      C       0.9237700000    -2.3570560000    -0.5332610000
    4      H       1.1281090000    -4.5610920000    -0.6518570000
    5      C       0.0000000000    -1.4406640000     0.0000000000
    6      S      -1.3375570000    -2.2869570000     0.7722500000
    7      C       2.1841530000    -1.9787430000    -1.2606800000
    8      H       2.7427690000    -2.8786780000    -1.5832830000
    9      H       2.8633470000    -1.3760150000    -0.6221800000
   10      H       1.9710940000    -1.3757280000    -2.1680110000
   11      C       0.0000000000     0.0000000000     0.0000000000
   12      C       0.4318290000     0.7478840000     1.0994460000
   13      C       1.1237990000     1.9463730000     0.7767210000
   14      H       0.2474230000     0.4284970000     2.1360880000
   15      C       1.2341470000     2.1374570000    -0.6125460000
   16      S       0.4712210000     0.8161300000    -1.4868090000
   17      C       1.6676940000     2.8883800000     1.8146090000
   18      H       1.4548740000     2.5197680000     2.8366760000
   19      H       1.2220090000     3.9012100000     1.7262390000
   20      H       2.7676750000     3.0087880000     1.7262280000
   21      H       1.7087730000     2.9594930000    -1.1615750000
   22      H      -0.5210980000    -4.3927130000     1.3362540000
   23      H      -1.4185090000    -4.3923470000    -0.2183740000
   24      H      -0.5399000000    -1.4403910000    -0.9353650000
 ----------------------------------------------------------------

   10   -1180.7380638267      6.08e-07  Convergence criterion met
 Total energy in the final basis set =    -1180.7380638267
        RIMP2         total energy =     -1182.7493232719 a.u.

                    Orbital Energies (a.u.)
 --------------------------------------------------------------

 Alpha MOs
 -- Occupied --
-91.9848 -91.9399 -11.2725 -11.2704 -11.2620 -11.2537 -11.2515 -11.2419
-11.2396 -11.2291 -11.2285 -11.2177  -8.9849  -8.9445  -6.6657  -6.6652
 -6.6646  -6.6259  -6.6248  -6.6236  -1.1988  -1.1538  -1.0588  -1.0233
 -1.0051  -0.9621  -0.9120  -0.9014  -0.8094  -0.7677  -0.7341  -0.7064
 -0.6522  -0.6336  -0.6113  -0.5894  -0.5767  -0.5741  -0.5704  -0.5527
 -0.5421  -0.5283  -0.5168  -0.5063  -0.4901  -0.4720  -0.4615  -0.4446
 -0.3536  -0.3425  -0.3170  -0.2743

          Ground-State Mulliken Net Atomic Charges

     Atom                 Charge (a.u.)
  ----------------------------------------
      1 C                    -0.071812
      2 C                    -0.331331
      3 C                    -0.025921
      4 H                     0.176158
      5 C                     0.066984
      6 S                    -0.184272
      7 C                    -0.275311
      8 H                     0.113574
      9 H                     0.112605
     10 H                     0.106143
     11 C                    -0.100668
     12 C                    -0.210752
     13 C                     0.018890
     14 H                     0.187423
     15 C                    -0.226175
     16 S                     0.009896
     17 C                    -0.270278
     18 H                     0.103268
     19 H                     0.107772
     20 H                     0.106635
     21 H                     0.199109
     22 H                     0.110413
     23 H                     0.108647
     24 H                     0.169005
  ----------------------------------------
  Sum of atomic charges =     0.000000

                    Cartesian Multipole Moments
 -----------------------------------------------------------------
    Charge (ESU x 10^10)
                -0.0000
    Dipole Moment (Debye)
         X       2.8880      Y       0.8097      Z      -0.4555
       Tot       3.0338
    Quadrupole Moments (Debye-Ang)
        XX     -88.8300     XY       2.5404     YY     -76.8427
        XZ       0.4467     YZ       3.7824     ZZ     -85.9556

 Total job time:  674.15s(wall), 660.44s(cpu)
        *  Thank you very much for using Q-Chem.  Have a nice day.  *
