 Q-Chem 5.4, Q-Chem, Inc., Pleasanton, CA (2021)
 Q-Chem 5.4.0 for Intel X86 EM64T Linux

User input:
--------------------------------------------------------------
$molecule
0 1
C	0.593324	-3.866725	0.498788
C	-0.469446	-3.703963	-0.393517
C	-0.817050	-2.357056	-0.685674
H	-0.998381	-4.561092	-0.837128
C	-0.000000	-1.440664	-0.000000
S	1.183149	-2.286957	0.992768
C	-1.931676	-1.978743	-1.621254
H	-2.425882	-2.878678	-2.035845
H	-1.563980	-1.376015	-2.477868
H	-2.711417	-1.375728	-1.110719
C	0.000000	0.000000	0.000000
C	0.075300	0.860311	1.099446
C	0.195935	2.238951	0.776721
H	0.043151	0.492916	2.136088
C	0.215188	2.458766	-0.612546
S	0.082160	0.938811	-1.486809
C	0.290762	3.322559	1.814609
H	0.253664	2.898542	2.836676
H	-0.541206	4.052140	1.726239
H	1.236797	3.896558	1.726228
H	0.297938	3.404370	-1.161575
H	1.433894	-4.392713	0.032646
H	0.279954	-4.392347	1.407651
H	0.694299	-1.440937	-0.827254
$end

$rem
JOBTYPE		SP
EXCHANGE	HF
CORRELATION	pRIMP2
BASIS		cc-pvtz
METHOD		rimp2
AUX_BASIS	rimp2-cc-pvtz
SOLVENT_METHOD	PCM
PURECART	11111
SYMMETRY	false
MEM_TOTAL	110000
SCF_CONVERGENCE = 6
THRESH=10
$end

$solvent
dielectric 4.90
$end
--------------------------------------------------------------

             Standard Nuclear Orientation (Angstroms)
    I     Atom           X                Y                Z
 ----------------------------------------------------------------
    1      C       0.5933240000    -3.8667250000     0.4987880000
    2      C      -0.4694460000    -3.7039630000    -0.3935170000
    3      C      -0.8170500000    -2.3570560000    -0.6856740000
    4      H      -0.9983810000    -4.5610920000    -0.8371280000
    5      C       0.0000000000    -1.4406640000     0.0000000000
    6      S       1.1831490000    -2.2869570000     0.9927680000
    7      C      -1.9316760000    -1.9787430000    -1.6212540000
    8      H      -2.4258820000    -2.8786780000    -2.0358450000
    9      H      -1.5639800000    -1.3760150000    -2.4778680000
   10      H      -2.7114170000    -1.3757280000    -1.1107190000
   11      C       0.0000000000     0.0000000000     0.0000000000
   12      C       0.0753000000     0.8603110000     1.0994460000
   13      C       0.1959350000     2.2389510000     0.7767210000
   14      H       0.0431510000     0.4929160000     2.1360880000
   15      C       0.2151880000     2.4587660000    -0.6125460000
   16      S       0.0821600000     0.9388110000    -1.4868090000
   17      C       0.2907620000     3.3225590000     1.8146090000
   18      H       0.2536640000     2.8985420000     2.8366760000
   19      H      -0.5412060000     4.0521400000     1.7262390000
   20      H       1.2367970000     3.8965580000     1.7262280000
   21      H       0.2979380000     3.4043700000    -1.1615750000
   22      H       1.4338940000    -4.3927130000     0.0326460000
   23      H       0.2799540000    -4.3923470000     1.4076510000
   24      H       0.6942990000    -1.4409370000    -0.8272540000
 ----------------------------------------------------------------

   10   -1180.7604021984      4.94e-07  Convergence criterion met
 Total energy in the final basis set =    -1180.7604021984
        RIMP2         total energy =     -1182.7645726890 a.u.

                    Orbital Energies (a.u.)
 --------------------------------------------------------------

 Alpha MOs
 -- Occupied --
-91.9841 -91.9439 -11.2841 -11.2636 -11.2610 -11.2577 -11.2505 -11.2419
-11.2357 -11.2321 -11.2282 -11.2208  -8.9840  -8.9484  -6.6650  -6.6644
 -6.6638  -6.6298  -6.6288  -6.6275  -1.2000  -1.1532  -1.0598  -1.0264
 -1.0050  -0.9601  -0.9147  -0.9006  -0.8136  -0.7690  -0.7296  -0.7039
 -0.6554  -0.6393  -0.6107  -0.5913  -0.5770  -0.5738  -0.5691  -0.5536
 -0.5424  -0.5325  -0.5137  -0.5064  -0.4887  -0.4847  -0.4618  -0.4473
 -0.3563  -0.3431  -0.3204  -0.2731

          Ground-State Mulliken Net Atomic Charges

     Atom                 Charge (a.u.)
  ----------------------------------------
      1 C                    -0.077081
      2 C                    -0.321803
      3 C                    -0.055193
      4 H                     0.177203
      5 C                     0.140060
      6 S                    -0.176212
      7 C                    -0.274387
      8 H                     0.115198
      9 H                     0.101690
     10 H                     0.111706
     11 C                    -0.094893
     12 C                    -0.260000
     13 C                     0.030643
     14 H                     0.187102
     15 C                    -0.252608
     16 S                     0.008492
     17 C                    -0.272865
     18 H                     0.103001
     19 H                     0.108025
     20 H                     0.108463
     21 H                     0.197228
     22 H                     0.112069
     23 H                     0.111486
     24 H                     0.172674
  ----------------------------------------
  Sum of atomic charges =     0.000000

                    Cartesian Multipole Moments
 -----------------------------------------------------------------
    Charge (ESU x 10^10)
                -0.0000
    Dipole Moment (Debye)
         X      -1.2003      Y       0.2520      Z      -0.6941
       Tot       1.4092
    Quadrupole Moments (Debye-Ang)
        XX     -91.2936     XY       2.6661     YY     -73.3903
        XZ       0.2172     YZ       4.4543     ZZ     -86.2022

 Total job time:  645.93s(wall), 640.74s(cpu)
        *  Thank you very much for using Q-Chem.  Have a nice day.  *
