 Q-Chem 5.4, Q-Chem, Inc., Pleasanton, CA (2021)
 Q-Chem 5.4.0 for Intel X86 EM64T Linux

User input:
--------------------------------------------------------------
$molecule
0 1
C	0.135301	-3.866725	-0.763228
C	-0.106073	-3.703963	0.603311
C	-0.185286	-2.357056	1.050423
H	-0.225783	-4.561092	1.283188
C	0.000000	-1.440664	0.000000
S	0.268187	-2.286957	-1.521021
C	-0.438209	-1.978743	2.483507
H	-0.550153	-2.878678	3.118798
H	-1.363906	-1.376015	2.593381
H	0.393798	-1.375728	2.903516
C	0.000000	0.000000	0.000000
C	0.661577	0.555087	1.099446
C	1.721724	1.444630	0.776721
H	0.379056	0.318032	2.136088
C	1.890772	1.586449	-0.612546
S	0.721935	0.605744	-1.486809
C	2.555004	2.143805	1.814609
H	2.228946	1.870211	2.836676
H	2.482605	3.247987	1.726239
H	3.629830	1.880735	1.726228
H	2.617927	2.196579	-1.161575
H	-0.688674	-4.392713	-1.258111
H	1.079084	-4.392347	-0.946272
H	-1.063572	-1.440937	-0.187654
$end

$rem
JOBTYPE		SP
EXCHANGE	HF
CORRELATION	pRIMP2
BASIS		cc-pvtz
METHOD		rimp2
AUX_BASIS	rimp2-cc-pvtz
SOLVENT_METHOD	PCM
PURECART	11111
SYMMETRY	false
MEM_TOTAL	110000
SCF_CONVERGENCE = 6
THRESH=10
$end

$solvent
dielectric 4.90
$end
--------------------------------------------------------------

             Standard Nuclear Orientation (Angstroms)
    I     Atom           X                Y                Z
 ----------------------------------------------------------------
    1      C       0.1353010000    -3.8667250000    -0.7632280000
    2      C      -0.1060730000    -3.7039630000     0.6033110000
    3      C      -0.1852860000    -2.3570560000     1.0504230000
    4      H      -0.2257830000    -4.5610920000     1.2831880000
    5      C       0.0000000000    -1.4406640000     0.0000000000
    6      S       0.2681870000    -2.2869570000    -1.5210210000
    7      C      -0.4382090000    -1.9787430000     2.4835070000
    8      H      -0.5501530000    -2.8786780000     3.1187980000
    9      H      -1.3639060000    -1.3760150000     2.5933810000
   10      H       0.3937980000    -1.3757280000     2.9035160000
   11      C       0.0000000000     0.0000000000     0.0000000000
   12      C       0.6615770000     0.5550870000     1.0994460000
   13      C       1.7217240000     1.4446300000     0.7767210000
   14      H       0.3790560000     0.3180320000     2.1360880000
   15      C       1.8907720000     1.5864490000    -0.6125460000
   16      S       0.7219350000     0.6057440000    -1.4868090000
   17      C       2.5550040000     2.1438050000     1.8146090000
   18      H       2.2289460000     1.8702110000     2.8366760000
   19      H       2.4826050000     3.2479870000     1.7262390000
   20      H       3.6298300000     1.8807350000     1.7262280000
   21      H       2.6179270000     2.1965790000    -1.1615750000
   22      H      -0.6886740000    -4.3927130000    -1.2581110000
   23      H       1.0790840000    -4.3923470000    -0.9462720000
   24      H      -1.0635720000    -1.4409370000    -0.1876540000
 ----------------------------------------------------------------

   11   -1180.6878516187      5.23e-07  Convergence criterion met
 Total energy in the final basis set =    -1180.6878516187
        RIMP2         total energy =     -1182.7115155508 a.u.

                    Orbital Energies (a.u.)
 --------------------------------------------------------------

 Alpha MOs
 -- Occupied --
-91.9800 -91.9405 -11.2735 -11.2636 -11.2618 -11.2508 -11.2489 -11.2455
-11.2377 -11.2326 -11.2293 -11.2145  -8.9807  -8.9451  -6.6615  -6.6607
 -6.6603  -6.6264  -6.6254  -6.6241  -1.2021  -1.1527  -1.0576  -1.0320
 -0.9975  -0.9651  -0.9127  -0.9004  -0.8142  -0.7591  -0.7337  -0.7087
 -0.6504  -0.6410  -0.6104  -0.5949  -0.5869  -0.5681  -0.5656  -0.5482
 -0.5446  -0.5346  -0.5209  -0.5050  -0.4806  -0.4768  -0.4544  -0.4347
 -0.3611  -0.3391  -0.3216  -0.2534

          Ground-State Mulliken Net Atomic Charges

     Atom                 Charge (a.u.)
  ----------------------------------------
      1 C                    -0.079684
      2 C                    -0.336190
      3 C                    -0.032038
      4 H                     0.174743
      5 C                     0.081057
      6 S                    -0.184026
      7 C                    -0.294499
      8 H                     0.119748
      9 H                     0.110022
     10 H                     0.100443
     11 C                    -0.108818
     12 C                    -0.202654
     13 C                     0.009390
     14 H                     0.196773
     15 C                    -0.216927
     16 S                     0.020262
     17 C                    -0.269679
     18 H                     0.100760
     19 H                     0.108386
     20 H                     0.106321
     21 H                     0.199552
     22 H                     0.108319
     23 H                     0.110364
     24 H                     0.178377
  ----------------------------------------
  Sum of atomic charges =     0.000000

                    Cartesian Multipole Moments
 -----------------------------------------------------------------
    Charge (ESU x 10^10)
                -0.0000
    Dipole Moment (Debye)
         X       0.6883      Y       0.4474      Z       3.6380
       Tot       3.7295
    Quadrupole Moments (Debye-Ang)
        XX     -85.1135     XY       7.4584     YY     -81.3550
        XZ       0.6160     YZ      -2.4855     ZZ     -85.1206

 Total job time:  741.64s(wall), 738.01s(cpu)
        *  Thank you very much for using Q-Chem.  Have a nice day.  *
