 Q-Chem 5.4, Q-Chem, Inc., Pleasanton, CA (2021)
 Q-Chem 5.4.0 for Intel X86 EM64T Linux

User input:
--------------------------------------------------------------
$molecule
0 1
C	-0.594240	-3.866725	0.497696
C	0.469057	-3.703963	-0.393981
C	0.817136	-2.357056	-0.685571
H	0.997777	-4.561092	-0.837848
C	0.000000	-1.440664	0.000000
S	-1.183137	-2.286957	0.992782
C	1.932056	-1.978743	-1.620802
H	2.426166	-2.878678	-2.035506
H	2.711806	-1.376015	-1.109943
H	1.564678	-1.375728	-2.477350
C	0.000000	0.000000	0.000000
C	0.431829	0.747884	1.099446
C	1.123799	1.946373	0.776721
H	0.247423	0.428497	2.136088
C	1.234147	2.137457	-0.612546
S	0.471221	0.816130	-1.486809
C	1.667694	2.888380	1.814609
H	1.454874	2.519768	2.836676
H	1.222009	3.901210	1.726239
H	2.767675	3.008788	1.726228
H	1.708773	2.959493	-1.161575
H	-0.281143	-4.392713	1.406441
H	-1.434879	-4.392347	0.031265
H	-0.694122	-1.440391	-0.827402
$end

$rem
JOBTYPE		SP
EXCHANGE	HF
CORRELATION	pRIMP2
BASIS		cc-pvtz
METHOD		rimp2
AUX_BASIS	rimp2-cc-pvtz
SOLVENT_METHOD	PCM
PURECART	11111
SYMMETRY	false
MEM_TOTAL	110000
SCF_CONVERGENCE = 6
THRESH=10
$end

$solvent
dielectric 4.90
$end
--------------------------------------------------------------

             Standard Nuclear Orientation (Angstroms)
    I     Atom           X                Y                Z
 ----------------------------------------------------------------
    1      C      -0.5942400000    -3.8667250000     0.4976960000
    2      C       0.4690570000    -3.7039630000    -0.3939810000
    3      C       0.8171360000    -2.3570560000    -0.6855710000
    4      H       0.9977770000    -4.5610920000    -0.8378480000
    5      C       0.0000000000    -1.4406640000     0.0000000000
    6      S      -1.1831370000    -2.2869570000     0.9927820000
    7      C       1.9320560000    -1.9787430000    -1.6208020000
    8      H       2.4261660000    -2.8786780000    -2.0355060000
    9      H       2.7118060000    -1.3760150000    -1.1099430000
   10      H       1.5646780000    -1.3757280000    -2.4773500000
   11      C       0.0000000000     0.0000000000     0.0000000000
   12      C       0.4318290000     0.7478840000     1.0994460000
   13      C       1.1237990000     1.9463730000     0.7767210000
   14      H       0.2474230000     0.4284970000     2.1360880000
   15      C       1.2341470000     2.1374570000    -0.6125460000
   16      S       0.4712210000     0.8161300000    -1.4868090000
   17      C       1.6676940000     2.8883800000     1.8146090000
   18      H       1.4548740000     2.5197680000     2.8366760000
   19      H       1.2220090000     3.9012100000     1.7262390000
   20      H       2.7676750000     3.0087880000     1.7262280000
   21      H       1.7087730000     2.9594930000    -1.1615750000
   22      H      -0.2811430000    -4.3927130000     1.4064410000
   23      H      -1.4348790000    -4.3923470000     0.0312650000
   24      H      -0.6941220000    -1.4403910000    -0.8274020000
 ----------------------------------------------------------------

   10   -1180.7354869073      6.12e-07  Convergence criterion met
 Total energy in the final basis set =    -1180.7354869073
        RIMP2         total energy =     -1182.7476016679 a.u.

                    Orbital Energies (a.u.)
 --------------------------------------------------------------

 Alpha MOs
 -- Occupied --
-91.9834 -91.9410 -11.2739 -11.2686 -11.2628 -11.2542 -11.2508 -11.2403
-11.2402 -11.2287 -11.2285 -11.2181  -8.9837  -8.9455  -6.6645  -6.6640
 -6.6634  -6.6269  -6.6259  -6.6246  -1.1992  -1.1534  -1.0589  -1.0237
 -1.0055  -0.9610  -0.9122  -0.9018  -0.8097  -0.7690  -0.7305  -0.7065
 -0.6524  -0.6356  -0.6111  -0.5910  -0.5776  -0.5737  -0.5699  -0.5522
 -0.5419  -0.5289  -0.5162  -0.5087  -0.4897  -0.4712  -0.4599  -0.4444
 -0.3542  -0.3416  -0.3191  -0.2712

          Ground-State Mulliken Net Atomic Charges

     Atom                 Charge (a.u.)
  ----------------------------------------
      1 C                    -0.070283
      2 C                    -0.330761
      3 C                    -0.030972
      4 H                     0.176806
      5 C                     0.067378
      6 S                    -0.184230
      7 C                    -0.277268
      8 H                     0.112668
      9 H                     0.115302
     10 H                     0.105572
     11 C                    -0.099861
     12 C                    -0.208879
     13 C                     0.016180
     14 H                     0.187956
     15 C                    -0.226732
     16 S                     0.007352
     17 C                    -0.270403
     18 H                     0.103090
     19 H                     0.107684
     20 H                     0.106610
     21 H                     0.198699
     22 H                     0.110622
     23 H                     0.109344
     24 H                     0.174126
  ----------------------------------------
  Sum of atomic charges =     0.000000

                    Cartesian Multipole Moments
 -----------------------------------------------------------------
    Charge (ESU x 10^10)
                -0.0000
    Dipole Moment (Debye)
         X       2.4891      Y       0.6416      Z      -0.7824
       Tot       2.6869
    Quadrupole Moments (Debye-Ang)
        XX     -88.7596     XY       3.0822     YY     -76.8340
        XZ       0.2857     YZ       4.1251     ZZ     -85.9680

 Total job time:  659.98s(wall), 656.64s(cpu)
        *  Thank you very much for using Q-Chem.  Have a nice day.  *
