 Q-Chem 5.4, Q-Chem, Inc., Pleasanton, CA (2021)
 Q-Chem 5.4.0 for Intel X86 EM64T Linux

User input:
--------------------------------------------------------------
$molecule
0 1
C	0.336297	-3.852073	0.775127
C	0.322520	-3.689895	-0.612565
C	0.205498	-2.348081	-1.066639
H	0.397057	-4.543777	-1.302900
C	0.125562	-1.435182	0.000000
S	0.199331	-2.278254	1.544483
C	0.172753	-1.971188	-2.521872
H	0.251114	-2.867704	-3.166949
H	1.009380	-1.292962	-2.790821
H	-0.768708	-1.448236	-2.791023
C	0.000000	0.000000	0.000000
C	0.295399	0.811508	1.099446
C	0.768742	2.111949	0.776721
H	0.169256	0.464952	2.136088
C	0.844232	2.319291	-0.612546
S	0.322342	0.885558	-1.486809
C	1.140796	3.134091	1.814609
H	0.995218	2.734123	2.836676
H	0.526006	4.054142	1.726239
H	2.203157	3.443680	1.726228
H	1.168902	3.211257	-1.161575
H	1.276119	-4.297846	1.119411
H	-0.512135	-4.453931	1.119277
H	-0.950352	-1.529038	-0.000115
$end

$rem
JOBTYPE		SP
EXCHANGE	HF
CORRELATION	pRIMP2
BASIS		cc-pvtz
METHOD		rimp2
AUX_BASIS	rimp2-cc-pvtz
SOLVENT_METHOD	PCM
PURECART	11111
SYMMETRY	false
MEM_TOTAL	110000
SCF_CONVERGENCE = 6
THRESH=10
$end

$solvent
dielectric 4.90
$end
--------------------------------------------------------------

             Standard Nuclear Orientation (Angstroms)
    I     Atom           X                Y                Z
 ----------------------------------------------------------------
    1      C       0.3362970000    -3.8520730000     0.7751270000
    2      C       0.3225200000    -3.6898950000    -0.6125650000
    3      C       0.2054980000    -2.3480810000    -1.0666390000
    4      H       0.3970570000    -4.5437770000    -1.3029000000
    5      C       0.1255620000    -1.4351820000     0.0000000000
    6      S       0.1993310000    -2.2782540000     1.5444830000
    7      C       0.1727530000    -1.9711880000    -2.5218720000
    8      H       0.2511140000    -2.8677040000    -3.1669490000
    9      H       1.0093800000    -1.2929620000    -2.7908210000
   10      H      -0.7687080000    -1.4482360000    -2.7910230000
   11      C       0.0000000000     0.0000000000     0.0000000000
   12      C       0.2953990000     0.8115080000     1.0994460000
   13      C       0.7687420000     2.1119490000     0.7767210000
   14      H       0.1692560000     0.4649520000     2.1360880000
   15      C       0.8442320000     2.3192910000    -0.6125460000
   16      S       0.3223420000     0.8855580000    -1.4868090000
   17      C       1.1407960000     3.1340910000     1.8146090000
   18      H       0.9952180000     2.7341230000     2.8366760000
   19      H       0.5260060000     4.0541420000     1.7262390000
   20      H       2.2031570000     3.4436800000     1.7262280000
   21      H       1.1689020000     3.2112570000    -1.1615750000
   22      H       1.2761190000    -4.2978460000     1.1194110000
   23      H      -0.5121350000    -4.4539310000     1.1192770000
   24      H      -0.9503520000    -1.5290380000    -0.0001150000
 ----------------------------------------------------------------

   10   -1180.7395090754      5.24e-07  Convergence criterion met
 Total energy in the final basis set =    -1180.7395090754
        RIMP2         total energy =     -1182.7506731574 a.u.

                    Orbital Energies (a.u.)
 --------------------------------------------------------------

 Alpha MOs
 -- Occupied --
-91.9799 -91.9455 -11.2846 -11.2660 -11.2584 -11.2573 -11.2500 -11.2432
-11.2347 -11.2318 -11.2275 -11.2207  -8.9802  -8.9500  -6.6611  -6.6605
 -6.6598  -6.6314  -6.6304  -6.6291  -1.2020  -1.1524  -1.0602  -1.0281
 -1.0067  -0.9567  -0.9157  -0.9020  -0.8137  -0.7721  -0.7179  -0.7053
 -0.6573  -0.6472  -0.6106  -0.5924  -0.5828  -0.5728  -0.5677  -0.5529
 -0.5410  -0.5342  -0.5163  -0.5127  -0.4875  -0.4771  -0.4569  -0.4439
 -0.3582  -0.3406  -0.3266  -0.2619

          Ground-State Mulliken Net Atomic Charges

     Atom                 Charge (a.u.)
  ----------------------------------------
      1 C                    -0.072697
      2 C                    -0.327352
      3 C                    -0.042434
      4 H                     0.178759
      5 C                     0.121473
      6 S                    -0.189096
      7 C                    -0.308941
      8 H                     0.120861
      9 H                     0.116049
     10 H                     0.111673
     11 C                    -0.025764
     12 C                    -0.307207
     13 C                     0.052438
     14 H                     0.180403
     15 C                    -0.272429
     16 S                     0.011547
     17 C                    -0.270130
     18 H                     0.102664
     19 H                     0.108215
     20 H                     0.108079
     21 H                     0.196049
     22 H                     0.112486
     23 H                     0.111930
     24 H                     0.183423
  ----------------------------------------
  Sum of atomic charges =     0.000000

                    Cartesian Multipole Moments
 -----------------------------------------------------------------
    Charge (ESU x 10^10)
                -0.0000
    Dipole Moment (Debye)
         X      -0.1781      Y      -0.2342      Z      -1.0589
       Tot       1.0990
    Quadrupole Moments (Debye-Ang)
        XX     -90.7818     XY       3.9536     YY     -74.5865
        XZ      -0.3029     YZ       4.5341     ZZ     -85.4251

 Total job time:  670.94s(wall), 664.76s(cpu)
        *  Thank you very much for using Q-Chem.  Have a nice day.  *
