 Q-Chem 5.4, Q-Chem, Inc., Pleasanton, CA (2021)
 Q-Chem 5.4.0 for Intel X86 EM64T Linux

User input:
--------------------------------------------------------------
$molecule
0 1
C	0.763475	-3.866725	-0.133897
C	-0.603206	-3.703963	0.106669
C	-1.050446	-2.357056	0.185154
H	-1.283024	-4.561092	0.226709
C	0.000000	-1.440664	0.000000
S	1.521018	-2.286957	-0.268206
C	-2.483610	-1.978743	0.437628
H	-3.118875	-2.878678	0.549717
H	-2.903464	-1.376015	-0.394664
H	-2.593726	-1.375728	1.363110
C	0.000000	0.000000	0.000000
C	0.661577	0.555087	1.099446
C	1.721724	1.444630	0.776721
H	0.379056	0.318032	2.136088
C	1.890772	1.586449	-0.612546
S	0.721935	0.605744	-1.486809
C	2.555004	2.143805	1.814609
H	2.228946	1.870211	2.836676
H	2.482605	3.247987	1.726239
H	3.629830	1.880735	1.726228
H	2.617927	2.196579	-1.161575
H	0.946698	-4.392713	-1.077442
H	1.258274	-4.392347	0.690363
H	-0.187427	-1.440937	-1.063612
$end

$rem
JOBTYPE		SP
EXCHANGE	HF
CORRELATION	pRIMP2
BASIS		cc-pvtz
METHOD		rimp2
AUX_BASIS	rimp2-cc-pvtz
SOLVENT_METHOD	PCM
PURECART	11111
SYMMETRY	false
MEM_TOTAL	110000
SCF_CONVERGENCE = 6
THRESH=10
$end

$solvent
dielectric 4.90
$end
--------------------------------------------------------------

             Standard Nuclear Orientation (Angstroms)
    I     Atom           X                Y                Z
 ----------------------------------------------------------------
    1      C       0.7634750000    -3.8667250000    -0.1338970000
    2      C      -0.6032060000    -3.7039630000     0.1066690000
    3      C      -1.0504460000    -2.3570560000     0.1851540000
    4      H      -1.2830240000    -4.5610920000     0.2267090000
    5      C       0.0000000000    -1.4406640000     0.0000000000
    6      S       1.5210180000    -2.2869570000    -0.2682060000
    7      C      -2.4836100000    -1.9787430000     0.4376280000
    8      H      -3.1188750000    -2.8786780000     0.5497170000
    9      H      -2.9034640000    -1.3760150000    -0.3946640000
   10      H      -2.5937260000    -1.3757280000     1.3631100000
   11      C       0.0000000000     0.0000000000     0.0000000000
   12      C       0.6615770000     0.5550870000     1.0994460000
   13      C       1.7217240000     1.4446300000     0.7767210000
   14      H       0.3790560000     0.3180320000     2.1360880000
   15      C       1.8907720000     1.5864490000    -0.6125460000
   16      S       0.7219350000     0.6057440000    -1.4868090000
   17      C       2.5550040000     2.1438050000     1.8146090000
   18      H       2.2289460000     1.8702110000     2.8366760000
   19      H       2.4826050000     3.2479870000     1.7262390000
   20      H       3.6298300000     1.8807350000     1.7262280000
   21      H       2.6179270000     2.1965790000    -1.1615750000
   22      H       0.9466980000    -4.3927130000    -1.0774420000
   23      H       1.2582740000    -4.3923470000     0.6903630000
   24      H      -0.1874270000    -1.4409370000    -1.0636120000
 ----------------------------------------------------------------

   10   -1180.7096350683      7.23e-07  Convergence criterion met
 Total energy in the final basis set =    -1180.7096350683
        RIMP2         total energy =     -1182.7256773958 a.u.

                    Orbital Energies (a.u.)
 --------------------------------------------------------------

 Alpha MOs
 -- Occupied --
-91.9822 -91.9342 -11.2826 -11.2567 -11.2565 -11.2529 -11.2513 -11.2496
-11.2369 -11.2294 -11.2293 -11.2124  -8.9827  -8.9393  -6.6636  -6.6628
 -6.6624  -6.6206  -6.6196  -6.6184  -1.2014  -1.1534  -1.0579  -1.0252
 -1.0001  -0.9639  -0.9096  -0.9006  -0.8090  -0.7596  -0.7465  -0.7030
 -0.6499  -0.6281  -0.6138  -0.5865  -0.5786  -0.5746  -0.5654  -0.5513
 -0.5412  -0.5320  -0.5063  -0.5059  -0.4887  -0.4688  -0.4611  -0.4443
 -0.3602  -0.3299  -0.3135  -0.2767

          Ground-State Mulliken Net Atomic Charges

     Atom                 Charge (a.u.)
  ----------------------------------------
      1 C                    -0.079803
      2 C                    -0.329805
      3 C                    -0.057822
      4 H                     0.173265
      5 C                     0.060655
      6 S                    -0.183481
      7 C                    -0.271267
      8 H                     0.112077
      9 H                     0.102580
     10 H                     0.103507
     11 C                    -0.135368
     12 C                    -0.141002
     13 C                     0.001113
     14 H                     0.184891
     15 C                    -0.189053
     16 S                     0.019587
     17 C                    -0.268827
     18 H                     0.102730
     19 H                     0.107533
     20 H                     0.106963
     21 H                     0.201220
     22 H                     0.106868
     23 H                     0.110374
     24 H                     0.163065
  ----------------------------------------
  Sum of atomic charges =     0.000000

                    Cartesian Multipole Moments
 -----------------------------------------------------------------
    Charge (ESU x 10^10)
                -0.0000
    Dipole Moment (Debye)
         X      -0.2656      Y       1.0759      Z       1.2823
       Tot       1.6949
    Quadrupole Moments (Debye-Ang)
        XX     -84.8923     XY       9.8712     YY     -81.6788
        XZ       0.1507     YZ       1.2151     ZZ     -85.1664

 Total job time:  669.78s(wall), 663.95s(cpu)
        *  Thank you very much for using Q-Chem.  Have a nice day.  *
