 Q-Chem 5.4, Q-Chem, Inc., Pleasanton, CA (2021)
 Q-Chem 5.4.0 for Intel X86 EM64T Linux

User input:
--------------------------------------------------------------
$molecule
0 1
C	0.000713	-3.866725	-0.775127
C	0.000302	-3.703963	0.612565
C	-0.000067	-2.357056	1.066639
H	0.000470	-4.561092	1.302900
C	0.000000	-1.440664	0.000000
S	-0.000009	-2.286957	-1.544483
C	-0.000295	-1.978743	2.521872
H	-0.000221	-2.878678	3.166949
H	-0.892850	-1.376015	2.790821
H	0.892005	-1.375728	2.791023
C	0.000000	0.000000	0.000000
C	0.747916	0.431772	1.099446
C	1.946425	1.123709	0.776721
H	0.428523	0.247378	2.136088
C	2.137531	1.234018	-0.612546
S	0.816154	0.471179	-1.486809
C	2.888455	1.667564	1.814609
H	2.519842	1.454746	2.836676
H	3.008896	2.767543	1.726239
H	3.901271	1.221850	1.726228
H	2.959587	1.708609	-1.161575
H	-0.896681	-4.392713	-1.119411
H	0.898372	-4.392347	-1.119277
H	-1.080000	-1.440937	-0.000115
$end

$rem
JOBTYPE		SP
EXCHANGE	HF
CORRELATION	pRIMP2
BASIS		cc-pvtz
METHOD		rimp2
AUX_BASIS	rimp2-cc-pvtz
SOLVENT_METHOD	PCM
PURECART	11111
SYMMETRY	false
MEM_TOTAL	110000
SCF_CONVERGENCE = 6
THRESH=10
$end

$solvent
dielectric 4.90
$end
--------------------------------------------------------------

             Standard Nuclear Orientation (Angstroms)
    I     Atom           X                Y                Z
 ----------------------------------------------------------------
    1      C       0.0007130000    -3.8667250000    -0.7751270000
    2      C       0.0003020000    -3.7039630000     0.6125650000
    3      C      -0.0000670000    -2.3570560000     1.0666390000
    4      H       0.0004700000    -4.5610920000     1.3029000000
    5      C       0.0000000000    -1.4406640000     0.0000000000
    6      S      -0.0000090000    -2.2869570000    -1.5444830000
    7      C      -0.0002950000    -1.9787430000     2.5218720000
    8      H      -0.0002210000    -2.8786780000     3.1669490000
    9      H      -0.8928500000    -1.3760150000     2.7908210000
   10      H       0.8920050000    -1.3757280000     2.7910230000
   11      C       0.0000000000     0.0000000000     0.0000000000
   12      C       0.7479160000     0.4317720000     1.0994460000
   13      C       1.9464250000     1.1237090000     0.7767210000
   14      H       0.4285230000     0.2473780000     2.1360880000
   15      C       2.1375310000     1.2340180000    -0.6125460000
   16      S       0.8161540000     0.4711790000    -1.4868090000
   17      C       2.8884550000     1.6675640000     1.8146090000
   18      H       2.5198420000     1.4547460000     2.8366760000
   19      H       3.0088960000     2.7675430000     1.7262390000
   20      H       3.9012710000     1.2218500000     1.7262280000
   21      H       2.9595870000     1.7086090000    -1.1615750000
   22      H      -0.8966810000    -4.3927130000    -1.1194110000
   23      H       0.8983720000    -4.3923470000    -1.1192770000
   24      H      -1.0800000000    -1.4409370000    -0.0001150000
 ----------------------------------------------------------------

   11   -1180.6559616284      6.89e-07  Convergence criterion met
 Total energy in the final basis set =    -1180.6559616284
        RIMP2         total energy =     -1182.6863132595 a.u.

                    Orbital Energies (a.u.)
 --------------------------------------------------------------

 Alpha MOs
 -- Occupied --
-91.9772 -91.9378 -11.2832 -11.2605 -11.2539 -11.2509 -11.2501 -11.2458
-11.2363 -11.2324 -11.2302 -11.2113  -8.9783  -8.9426  -6.6591  -6.6581
 -6.6579  -6.6239  -6.6228  -6.6216  -1.2046  -1.1525  -1.0577  -1.0336
 -0.9966  -0.9657  -0.9129  -0.9012  -0.8126  -0.7597  -0.7332  -0.7118
 -0.6483  -0.6419  -0.6118  -0.5977  -0.5884  -0.5685  -0.5643  -0.5476
 -0.5443  -0.5348  -0.5226  -0.5052  -0.4793  -0.4747  -0.4429  -0.4319
 -0.3630  -0.3371  -0.3193  -0.2497

          Ground-State Mulliken Net Atomic Charges

     Atom                 Charge (a.u.)
  ----------------------------------------
      1 C                    -0.078961
      2 C                    -0.346497
      3 C                    -0.030639
      4 H                     0.173643
      5 C                     0.069162
      6 S                    -0.190811
      7 C                    -0.288296
      8 H                     0.119803
      9 H                     0.106125
     10 H                     0.101818
     11 C                    -0.151440
     12 C                    -0.162581
     13 C                    -0.009209
     14 H                     0.199764
     15 C                    -0.188077
     16 S                     0.030864
     17 C                    -0.272668
     18 H                     0.101022
     19 H                     0.110308
     20 H                     0.106091
     21 H                     0.200023
     22 H                     0.107679
     23 H                     0.108994
     24 H                     0.183883
  ----------------------------------------
  Sum of atomic charges =     0.000000

                    Cartesian Multipole Moments
 -----------------------------------------------------------------
    Charge (ESU x 10^10)
                -0.0000
    Dipole Moment (Debye)
         X       1.8024      Y       0.5392      Z       3.9193
       Tot       4.3475
    Quadrupole Moments (Debye-Ang)
        XX     -82.6531     XY       6.4481     YY     -84.1253
        XZ       0.5766     YZ      -2.7929     ZZ     -84.8553

 Total job time:  797.78s(wall), 793.35s(cpu)
        *  Thank you very much for using Q-Chem.  Have a nice day.  *
