 Q-Chem 5.4, Q-Chem, Inc., Pleasanton, CA (2021)
 Q-Chem 5.4.0 for Intel X86 EM64T Linux

User input:
--------------------------------------------------------------
$molecule
0 1
C	-0.264439	-3.866725	-0.728625
C	0.209794	-3.703963	0.575519
C	0.364749	-2.357056	1.002336
H	0.446060	-4.561092	1.224165
C	-0.000000	-1.440664	-0.000000
S	-0.528253	-2.286957	-1.451336
C	0.862253	-1.978743	2.369885
H	1.082953	-2.878678	2.976034
H	0.115513	-1.376015	2.927887
H	1.792797	-1.375728	2.317620
C	0.000000	0.000000	0.000000
C	0.075300	0.860311	1.099446
C	0.195935	2.238951	0.776721
H	0.043151	0.492916	2.136088
C	0.215188	2.458766	-0.612546
S	0.082160	0.938811	-1.486809
C	0.290762	3.322559	1.814609
H	0.253664	2.898542	2.836676
H	-0.541206	4.052140	1.726239
H	1.236797	3.896558	1.726228
H	0.297938	3.404370	-1.161575
H	-1.225465	-4.392713	-0.745219
H	0.461378	-4.392347	-1.359038
H	-1.014907	-1.440937	0.369273
$end

$rem
JOBTYPE		SP
EXCHANGE	HF
CORRELATION	pRIMP2
BASIS		cc-pvtz
METHOD		rimp2
AUX_BASIS	rimp2-cc-pvtz
SOLVENT_METHOD	PCM
PURECART	11111
SYMMETRY	false
MEM_TOTAL	110000
SCF_CONVERGENCE = 6
THRESH=10
$end

$solvent
dielectric 4.90
$end
--------------------------------------------------------------

             Standard Nuclear Orientation (Angstroms)
    I     Atom           X                Y                Z
 ----------------------------------------------------------------
    1      C      -0.2644390000    -3.8667250000    -0.7286250000
    2      C       0.2097940000    -3.7039630000     0.5755190000
    3      C       0.3647490000    -2.3570560000     1.0023360000
    4      H       0.4460600000    -4.5610920000     1.2241650000
    5      C       0.0000000000    -1.4406640000     0.0000000000
    6      S      -0.5282530000    -2.2869570000    -1.4513360000
    7      C       0.8622530000    -1.9787430000     2.3698850000
    8      H       1.0829530000    -2.8786780000     2.9760340000
    9      H       0.1155130000    -1.3760150000     2.9278870000
   10      H       1.7927970000    -1.3757280000     2.3176200000
   11      C       0.0000000000     0.0000000000     0.0000000000
   12      C       0.0753000000     0.8603110000     1.0994460000
   13      C       0.1959350000     2.2389510000     0.7767210000
   14      H       0.0431510000     0.4929160000     2.1360880000
   15      C       0.2151880000     2.4587660000    -0.6125460000
   16      S       0.0821600000     0.9388110000    -1.4868090000
   17      C       0.2907620000     3.3225590000     1.8146090000
   18      H       0.2536640000     2.8985420000     2.8366760000
   19      H      -0.5412060000     4.0521400000     1.7262390000
   20      H       1.2367970000     3.8965580000     1.7262280000
   21      H       0.2979380000     3.4043700000    -1.1615750000
   22      H      -1.2254650000    -4.3927130000    -0.7452190000
   23      H       0.4613780000    -4.3923470000    -1.3590380000
   24      H      -1.0149070000    -1.4409370000     0.3692730000
 ----------------------------------------------------------------

   10   -1180.7566804999      5.06e-07  Convergence criterion met
 Total energy in the final basis set =    -1180.7566804999
        RIMP2         total energy =     -1182.7629469231 a.u.

                    Orbital Energies (a.u.)
 --------------------------------------------------------------

 Alpha MOs
 -- Occupied --
-91.9837 -91.9460 -11.2897 -11.2665 -11.2611 -11.2537 -11.2501 -11.2444
-11.2340 -11.2298 -11.2282 -11.2235  -8.9833  -8.9507  -6.6642  -6.6637
 -6.6631  -6.6321  -6.6311  -6.6298  -1.2022  -1.1523  -1.0603  -1.0316
 -1.0019  -0.9614  -0.9158  -0.8997  -0.8185  -0.7632  -0.7262  -0.7070
 -0.6591  -0.6484  -0.6107  -0.5935  -0.5865  -0.5693  -0.5597  -0.5531
 -0.5435  -0.5352  -0.5224  -0.5027  -0.4854  -0.4824  -0.4686  -0.4441
 -0.3602  -0.3437  -0.3234  -0.2651

          Ground-State Mulliken Net Atomic Charges

     Atom                 Charge (a.u.)
  ----------------------------------------
      1 C                    -0.074075
      2 C                    -0.314542
      3 C                    -0.066261
      4 H                     0.178734
      5 C                     0.144459
      6 S                    -0.179870
      7 C                    -0.296783
      8 H                     0.121439
      9 H                     0.100071
     10 H                     0.118301
     11 C                    -0.062834
     12 C                    -0.278991
     13 C                     0.037285
     14 H                     0.188881
     15 C                    -0.280366
     16 S                     0.012158
     17 C                    -0.273445
     18 H                     0.100649
     19 H                     0.108515
     20 H                     0.108560
     21 H                     0.195584
     22 H                     0.112769
     23 H                     0.113010
     24 H                     0.186754
  ----------------------------------------
  Sum of atomic charges =     0.000000

                    Cartesian Multipole Moments
 -----------------------------------------------------------------
    Charge (ESU x 10^10)
                -0.0000
    Dipole Moment (Debye)
         X       0.1250      Y      -0.4493      Z       3.9202
       Tot       3.9479
    Quadrupole Moments (Debye-Ang)
        XX     -91.4557     XY       1.1149     YY     -73.0215
        XZ       0.4419     YZ      -2.6193     ZZ     -85.9605

 Total job time:  660.78s(wall), 656.85s(cpu)
        *  Thank you very much for using Q-Chem.  Have a nice day.  *
