 Q-Chem 5.4, Q-Chem, Inc., Pleasanton, CA (2021)
 Q-Chem 5.4.0 for Intel X86 EM64T Linux

User input:
--------------------------------------------------------------
$molecule
0 1
C	-0.388181	-3.866725	0.670924
C	0.306020	-3.703963	-0.530648
C	0.533378	-2.357056	-0.923703
H	0.651043	-4.561092	-1.128579
C	-0.000000	-1.440664	-0.000000
S	-0.772234	-2.286957	1.337567
C	1.261192	-1.978743	-2.183857
H	1.583666	-2.878678	-2.742548
H	2.168641	-1.376015	-1.970497
H	0.623012	-1.375728	-2.863099
C	0.000000	0.000000	0.000000
C	0.555137	0.661535	1.099446
C	1.444710	1.721658	0.776721
H	0.318072	0.379023	2.136088
C	1.586563	1.890676	-0.612546
S	0.605781	0.721904	-1.486809
C	2.143920	2.554907	1.814609
H	1.870325	2.228851	2.836676
H	1.880882	3.629742	1.726239
H	3.248098	2.482476	1.726228
H	2.196723	2.617806	-1.161575
H	0.216843	-4.392713	1.417779
H	-1.337652	-4.392347	0.520136
H	0.935250	-1.440937	0.540100
$end

$rem
JOBTYPE		SP
EXCHANGE	HF
CORRELATION	pRIMP2
BASIS		cc-pvtz
METHOD		rimp2
AUX_BASIS	rimp2-cc-pvtz
SOLVENT_METHOD	PCM
PURECART	11111
SYMMETRY	false
MEM_TOTAL	110000
SCF_CONVERGENCE = 6
THRESH=10
$end

$solvent
dielectric 4.90
$end
--------------------------------------------------------------

             Standard Nuclear Orientation (Angstroms)
    I     Atom           X                Y                Z
 ----------------------------------------------------------------
    1      C      -0.3881810000    -3.8667250000     0.6709240000
    2      C       0.3060200000    -3.7039630000    -0.5306480000
    3      C       0.5333780000    -2.3570560000    -0.9237030000
    4      H       0.6510430000    -4.5610920000    -1.1285790000
    5      C       0.0000000000    -1.4406640000     0.0000000000
    6      S      -0.7722340000    -2.2869570000     1.3375670000
    7      C       1.2611920000    -1.9787430000    -2.1838570000
    8      H       1.5836660000    -2.8786780000    -2.7425480000
    9      H       2.1686410000    -1.3760150000    -1.9704970000
   10      H       0.6230120000    -1.3757280000    -2.8630990000
   11      C       0.0000000000     0.0000000000     0.0000000000
   12      C       0.5551370000     0.6615350000     1.0994460000
   13      C       1.4447100000     1.7216580000     0.7767210000
   14      H       0.3180720000     0.3790230000     2.1360880000
   15      C       1.5865630000     1.8906760000    -0.6125460000
   16      S       0.6057810000     0.7219040000    -1.4868090000
   17      C       2.1439200000     2.5549070000     1.8146090000
   18      H       1.8703250000     2.2288510000     2.8366760000
   19      H       1.8808820000     3.6297420000     1.7262390000
   20      H       3.2480980000     2.4824760000     1.7262280000
   21      H       2.1967230000     2.6178060000    -1.1615750000
   22      H       0.2168430000    -4.3927130000     1.4177790000
   23      H      -1.3376520000    -4.3923470000     0.5201360000
   24      H       0.9352500000    -1.4409370000     0.5401000000
 ----------------------------------------------------------------

   10   -1180.7124298389      7.96e-07  Convergence criterion met
 Total energy in the final basis set =    -1180.7124298389
        RIMP2         total energy =     -1182.7317737068 a.u.

                    Orbital Energies (a.u.)
 --------------------------------------------------------------

 Alpha MOs
 -- Occupied --
-91.9806 -91.9403 -11.2781 -11.2643 -11.2632 -11.2558 -11.2510 -11.2410
-11.2367 -11.2287 -11.2287 -11.2180  -8.9813  -8.9452  -6.6620  -6.6614
 -6.6610  -6.6266  -6.6256  -6.6243  -1.2042  -1.1523  -1.0600  -1.0266
 -1.0075  -0.9554  -0.9123  -0.9035  -0.8082  -0.7708  -0.7250  -0.7003
 -0.6633  -0.6431  -0.6107  -0.5844  -0.5830  -0.5748  -0.5686  -0.5543
 -0.5423  -0.5309  -0.5164  -0.5148  -0.4917  -0.4665  -0.4524  -0.4433
 -0.3546  -0.3401  -0.3228  -0.2611

          Ground-State Mulliken Net Atomic Charges

     Atom                 Charge (a.u.)
  ----------------------------------------
      1 C                    -0.071508
      2 C                    -0.326874
      3 C                    -0.042586
      4 H                     0.177775
      5 C                     0.063193
      6 S                    -0.195657
      7 C                    -0.280803
      8 H                     0.110639
      9 H                     0.111775
     10 H                     0.108725
     11 C                    -0.048608
     12 C                    -0.241810
     13 C                     0.018606
     14 H                     0.184650
     15 C                    -0.250208
     16 S                     0.023079
     17 C                    -0.268969
     18 H                     0.103019
     19 H                     0.108067
     20 H                     0.105732
     21 H                     0.198006
     22 H                     0.109311
     23 H                     0.111950
     24 H                     0.192495
  ----------------------------------------
  Sum of atomic charges =     0.000000

                    Cartesian Multipole Moments
 -----------------------------------------------------------------
    Charge (ESU x 10^10)
                -0.0000
    Dipole Moment (Debye)
         X       3.2482      Y       0.0915      Z      -0.5341
       Tot       3.2931
    Quadrupole Moments (Debye-Ang)
        XX     -87.5744     XY       2.2287     YY     -79.2396
        XZ       0.6242     YZ       2.9972     ZZ     -85.1159

 Total job time:  676.21s(wall), 673.00s(cpu)
        *  Thank you very much for using Q-Chem.  Have a nice day.  *
