 Q-Chem 5.4, Q-Chem, Inc., Pleasanton, CA (2021)
 Q-Chem 5.4.0 for Intel X86 EM64T Linux

User input:
--------------------------------------------------------------
$molecule
0 1
C	-0.728138	-3.866725	-0.265779
C	0.575726	-3.703963	0.209225
C	1.002290	-2.357056	0.364875
H	1.224486	-4.561092	0.445176
C	-0.000000	-1.440664	-0.000000
S	-1.451343	-2.286957	-0.528236
C	2.369683	-1.978743	0.862808
H	2.975883	-2.878678	1.083368
H	2.317142	-1.376015	1.793522
H	2.927787	-1.375728	0.116375
C	0.000000	0.000000	0.000000
C	0.149995	0.850475	1.099446
C	0.390327	2.213354	0.776721
H	0.085947	0.487279	2.136088
C	0.428665	2.430655	-0.612546
S	0.163670	0.928078	-1.486809
C	0.579235	3.284574	1.814609
H	0.505323	2.865404	2.836676
H	-0.185980	4.083890	1.726239
H	1.571698	3.773937	1.726228
H	0.593515	3.365448	-1.161575
H	-1.358585	-4.392713	0.459743
H	-0.744515	-4.392347	-1.227009
H	-0.369490	-1.440937	1.014829
$end

$rem
JOBTYPE		SP
EXCHANGE	HF
CORRELATION	pRIMP2
BASIS		cc-pvtz
METHOD		rimp2
AUX_BASIS	rimp2-cc-pvtz
SOLVENT_METHOD	PCM
PURECART	11111
SYMMETRY	false
MEM_TOTAL	110000
SCF_CONVERGENCE = 6
THRESH=10
$end

$solvent
dielectric 4.90
$end
--------------------------------------------------------------

             Standard Nuclear Orientation (Angstroms)
    I     Atom           X                Y                Z
 ----------------------------------------------------------------
    1      C      -0.7281380000    -3.8667250000    -0.2657790000
    2      C       0.5757260000    -3.7039630000     0.2092250000
    3      C       1.0022900000    -2.3570560000     0.3648750000
    4      H       1.2244860000    -4.5610920000     0.4451760000
    5      C       0.0000000000    -1.4406640000     0.0000000000
    6      S      -1.4513430000    -2.2869570000    -0.5282360000
    7      C       2.3696830000    -1.9787430000     0.8628080000
    8      H       2.9758830000    -2.8786780000     1.0833680000
    9      H       2.3171420000    -1.3760150000     1.7935220000
   10      H       2.9277870000    -1.3757280000     0.1163750000
   11      C       0.0000000000     0.0000000000     0.0000000000
   12      C       0.1499950000     0.8504750000     1.0994460000
   13      C       0.3903270000     2.2133540000     0.7767210000
   14      H       0.0859470000     0.4872790000     2.1360880000
   15      C       0.4286650000     2.4306550000    -0.6125460000
   16      S       0.1636700000     0.9280780000    -1.4868090000
   17      C       0.5792350000     3.2845740000     1.8146090000
   18      H       0.5053230000     2.8654040000     2.8366760000
   19      H      -0.1859800000     4.0838900000     1.7262390000
   20      H       1.5716980000     3.7739370000     1.7262280000
   21      H       0.5935150000     3.3654480000    -1.1615750000
   22      H      -1.3585850000    -4.3927130000     0.4597430000
   23      H      -0.7445150000    -4.3923470000    -1.2270090000
   24      H      -0.3694900000    -1.4409370000     1.0148290000
 ----------------------------------------------------------------

   10   -1180.7623816428      5.08e-07  Convergence criterion met
 Total energy in the final basis set =    -1180.7623816428
        RIMP2         total energy =     -1182.7676706556 a.u.

                    Orbital Energies (a.u.)
 --------------------------------------------------------------

 Alpha MOs
 -- Occupied --
-91.9804 -91.9413 -11.2814 -11.2647 -11.2633 -11.2560 -11.2510 -11.2436
-11.2409 -11.2316 -11.2295 -11.2197  -8.9804  -8.9460  -6.6613  -6.6607
 -6.6602  -6.6274  -6.6264  -6.6251  -1.1984  -1.1537  -1.0583  -1.0265
 -1.0050  -0.9610  -0.9119  -0.9011  -0.8156  -0.7606  -0.7348  -0.7041
 -0.6604  -0.6418  -0.6107  -0.5899  -0.5814  -0.5713  -0.5643  -0.5519
 -0.5418  -0.5299  -0.5158  -0.5063  -0.4898  -0.4803  -0.4609  -0.4477
 -0.3556  -0.3416  -0.3147  -0.2798

          Ground-State Mulliken Net Atomic Charges

     Atom                 Charge (a.u.)
  ----------------------------------------
      1 C                    -0.077487
      2 C                    -0.328060
      3 C                    -0.020612
      4 H                     0.176540
      5 C                     0.080813
      6 S                    -0.175414
      7 C                    -0.267373
      8 H                     0.115070
      9 H                     0.099342
     10 H                     0.110491
     11 C                    -0.075693
     12 C                    -0.250298
     13 C                     0.020633
     14 H                     0.184999
     15 C                    -0.238178
     16 S                     0.004968
     17 C                    -0.271801
     18 H                     0.101804
     19 H                     0.108752
     20 H                     0.108144
     21 H                     0.197069
     22 H                     0.111453
     23 H                     0.111807
     24 H                     0.173028
  ----------------------------------------
  Sum of atomic charges =     0.000000

                    Cartesian Multipole Moments
 -----------------------------------------------------------------
    Charge (ESU x 10^10)
                -0.0000
    Dipole Moment (Debye)
         X       2.3464      Y       0.5199      Z       3.0921
       Tot       3.9162
    Quadrupole Moments (Debye-Ang)
        XX     -91.2126     XY      -1.0179     YY     -73.8575
        XZ      -0.0080     YZ      -1.4319     ZZ     -86.2879

 Total job time:  657.81s(wall), 651.22s(cpu)
        *  Thank you very much for using Q-Chem.  Have a nice day.  *
