 Q-Chem 5.4, Q-Chem, Inc., Pleasanton, CA (2021)
 Q-Chem 5.4.0 for Intel X86 EM64T Linux

User input:
--------------------------------------------------------------
$molecule
0 1
C	-0.671636	-3.866725	0.386946
C	0.530345	-3.703963	-0.306544
C	0.923770	-2.357056	-0.533261
H	1.128109	-4.561092	-0.651857
C	-0.000000	-1.440664	-0.000000
S	-1.337557	-2.286957	0.772250
C	2.184153	-1.978743	-1.260680
H	2.742769	-2.878678	-1.583283
H	2.863347	-1.376015	-0.622180
H	1.971094	-1.375728	-2.168011
C	0.000000	0.000000	0.000000
C	0.555137	0.661535	1.099446
C	1.444710	1.721658	0.776721
H	0.318072	0.379023	2.136088
C	1.586563	1.890676	-0.612546
S	0.605781	0.721904	-1.486809
C	2.143920	2.554907	1.814609
H	1.870325	2.228851	2.836676
H	1.880882	3.629742	1.726239
H	3.248098	2.482476	1.726228
H	2.196723	2.617806	-1.161575
H	-0.521098	-4.392713	1.336254
H	-1.418509	-4.392347	-0.218374
H	-0.539900	-1.440391	-0.935365
$end

$rem
JOBTYPE		SP
EXCHANGE	HF
CORRELATION	pRIMP2
BASIS		cc-pvtz
METHOD		rimp2
AUX_BASIS	rimp2-cc-pvtz
SOLVENT_METHOD	PCM
PURECART	11111
SYMMETRY	false
MEM_TOTAL	110000
SCF_CONVERGENCE = 6
THRESH=10
$end

$solvent
dielectric 4.90
$end
--------------------------------------------------------------

             Standard Nuclear Orientation (Angstroms)
    I     Atom           X                Y                Z
 ----------------------------------------------------------------
    1      C      -0.6716360000    -3.8667250000     0.3869460000
    2      C       0.5303450000    -3.7039630000    -0.3065440000
    3      C       0.9237700000    -2.3570560000    -0.5332610000
    4      H       1.1281090000    -4.5610920000    -0.6518570000
    5      C       0.0000000000    -1.4406640000     0.0000000000
    6      S      -1.3375570000    -2.2869570000     0.7722500000
    7      C       2.1841530000    -1.9787430000    -1.2606800000
    8      H       2.7427690000    -2.8786780000    -1.5832830000
    9      H       2.8633470000    -1.3760150000    -0.6221800000
   10      H       1.9710940000    -1.3757280000    -2.1680110000
   11      C       0.0000000000     0.0000000000     0.0000000000
   12      C       0.5551370000     0.6615350000     1.0994460000
   13      C       1.4447100000     1.7216580000     0.7767210000
   14      H       0.3180720000     0.3790230000     2.1360880000
   15      C       1.5865630000     1.8906760000    -0.6125460000
   16      S       0.6057810000     0.7219040000    -1.4868090000
   17      C       2.1439200000     2.5549070000     1.8146090000
   18      H       1.8703250000     2.2288510000     2.8366760000
   19      H       1.8808820000     3.6297420000     1.7262390000
   20      H       3.2480980000     2.4824760000     1.7262280000
   21      H       2.1967230000     2.6178060000    -1.1615750000
   22      H      -0.5210980000    -4.3927130000     1.3362540000
   23      H      -1.4185090000    -4.3923470000    -0.2183740000
   24      H      -0.5399000000    -1.4403910000    -0.9353650000
 ----------------------------------------------------------------

   10   -1180.7209536230      7.32e-07  Convergence criterion met
 Total energy in the final basis set =    -1180.7209536230
        RIMP2         total energy =     -1182.7369033514 a.u.

                    Orbital Energies (a.u.)
 --------------------------------------------------------------

 Alpha MOs
 -- Occupied --
-91.9837 -91.9381 -11.2756 -11.2659 -11.2607 -11.2520 -11.2520 -11.2459
-11.2384 -11.2295 -11.2269 -11.2162  -8.9841  -8.9427  -6.6649  -6.6643
 -6.6639  -6.6241  -6.6231  -6.6218  -1.1997  -1.1539  -1.0588  -1.0222
 -1.0054  -0.9626  -0.9110  -0.9020  -0.8072  -0.7681  -0.7349  -0.7076
 -0.6510  -0.6318  -0.6121  -0.5895  -0.5784  -0.5734  -0.5705  -0.5527
 -0.5421  -0.5268  -0.5185  -0.5070  -0.4895  -0.4653  -0.4604  -0.4426
 -0.3523  -0.3420  -0.3172  -0.2725

          Ground-State Mulliken Net Atomic Charges

     Atom                 Charge (a.u.)
  ----------------------------------------
      1 C                    -0.070104
      2 C                    -0.333757
      3 C                    -0.030492
      4 H                     0.175721
      5 C                     0.065774
      6 S                    -0.193059
      7 C                    -0.280762
      8 H                     0.113440
      9 H                     0.112864
     10 H                     0.109404
     11 C                    -0.116014
     12 C                    -0.180817
     13 C                     0.008870
     14 H                     0.188305
     15 C                    -0.212712
     16 S                     0.012720
     17 C                    -0.269245
     18 H                     0.103331
     19 H                     0.107633
     20 H                     0.105851
     21 H                     0.200178
     22 H                     0.109391
     23 H                     0.106956
     24 H                     0.166522
  ----------------------------------------
  Sum of atomic charges =     0.000000

                    Cartesian Multipole Moments
 -----------------------------------------------------------------
    Charge (ESU x 10^10)
                -0.0000
    Dipole Moment (Debye)
         X       3.4176      Y       0.9488      Z      -0.4597
       Tot       3.5766
    Quadrupole Moments (Debye-Ang)
        XX     -86.9530     XY       3.4179     YY     -79.1511
        XZ       0.4928     YZ       3.6691     ZZ     -85.7594

 Total job time:  716.41s(wall), 712.75s(cpu)
        *  Thank you very much for using Q-Chem.  Have a nice day.  *
