 Q-Chem 5.4, Q-Chem, Inc., Pleasanton, CA (2021)
 Q-Chem 5.4.0 for Intel X86 EM64T Linux

User input:
--------------------------------------------------------------
$molecule
0 1
C	-0.386946	-3.866725	-0.671636
C	0.306544	-3.703963	0.530345
C	0.533261	-2.357056	0.923770
H	0.651857	-4.561092	1.128109
C	0.000000	-1.440664	0.000000
S	-0.772250	-2.286957	-1.337557
C	1.260680	-1.978743	2.184153
H	1.583283	-2.878678	2.742769
H	0.622180	-1.376015	2.863347
H	2.168011	-1.375728	1.971094
C	0.000000	0.000000	0.000000
C	0.431829	0.747884	1.099446
C	1.123799	1.946373	0.776721
H	0.247423	0.428497	2.136088
C	1.234147	2.137457	-0.612546
S	0.471221	0.816130	-1.486809
C	1.667694	2.888380	1.814609
H	1.454874	2.519768	2.836676
H	1.222009	3.901210	1.726239
H	2.767675	3.008788	1.726228
H	1.708773	2.959493	-1.161575
H	-1.336254	-4.392713	-0.521098
H	0.218374	-4.392347	-1.418509
H	-0.935365	-1.440937	0.539900
$end

$rem
JOBTYPE		SP
EXCHANGE	HF
CORRELATION	pRIMP2
BASIS		cc-pvtz
METHOD		rimp2
AUX_BASIS	rimp2-cc-pvtz
SOLVENT_METHOD	PCM
PURECART	11111
SYMMETRY	false
MEM_TOTAL	110000
SCF_CONVERGENCE = 6
THRESH=10
$end

$solvent
dielectric 4.90
$end
--------------------------------------------------------------

             Standard Nuclear Orientation (Angstroms)
    I     Atom           X                Y                Z
 ----------------------------------------------------------------
    1      C      -0.3869460000    -3.8667250000    -0.6716360000
    2      C       0.3065440000    -3.7039630000     0.5303450000
    3      C       0.5332610000    -2.3570560000     0.9237700000
    4      H       0.6518570000    -4.5610920000     1.1281090000
    5      C       0.0000000000    -1.4406640000     0.0000000000
    6      S      -0.7722500000    -2.2869570000    -1.3375570000
    7      C       1.2606800000    -1.9787430000     2.1841530000
    8      H       1.5832830000    -2.8786780000     2.7427690000
    9      H       0.6221800000    -1.3760150000     2.8633470000
   10      H       2.1680110000    -1.3757280000     1.9710940000
   11      C       0.0000000000     0.0000000000     0.0000000000
   12      C       0.4318290000     0.7478840000     1.0994460000
   13      C       1.1237990000     1.9463730000     0.7767210000
   14      H       0.2474230000     0.4284970000     2.1360880000
   15      C       1.2341470000     2.1374570000    -0.6125460000
   16      S       0.4712210000     0.8161300000    -1.4868090000
   17      C       1.6676940000     2.8883800000     1.8146090000
   18      H       1.4548740000     2.5197680000     2.8366760000
   19      H       1.2220090000     3.9012100000     1.7262390000
   20      H       2.7676750000     3.0087880000     1.7262280000
   21      H       1.7087730000     2.9594930000    -1.1615750000
   22      H      -1.3362540000    -4.3927130000    -0.5210980000
   23      H       0.2183740000    -4.3923470000    -1.4185090000
   24      H      -0.9353650000    -1.4409370000     0.5399000000
 ----------------------------------------------------------------

   10   -1180.7363701514      6.07e-07  Convergence criterion met
 Total energy in the final basis set =    -1180.7363701514
        RIMP2         total energy =     -1182.7493755329 a.u.

                    Orbital Energies (a.u.)
 --------------------------------------------------------------

 Alpha MOs
 -- Occupied --
-91.9801 -91.9428 -11.2786 -11.2646 -11.2634 -11.2562 -11.2510 -11.2421
-11.2395 -11.2325 -11.2292 -11.2198  -8.9801  -8.9475  -6.6611  -6.6604
 -6.6599  -6.6289  -6.6279  -6.6266  -1.2007  -1.1530  -1.0589  -1.0299
 -1.0014  -0.9625  -0.9139  -0.9005  -0.8154  -0.7615  -0.7291  -0.7093
 -0.6551  -0.6455  -0.6108  -0.5924  -0.5886  -0.5704  -0.5592  -0.5531
 -0.5417  -0.5339  -0.5223  -0.5064  -0.4816  -0.4733  -0.4644  -0.4440
 -0.3573  -0.3419  -0.3224  -0.2654

          Ground-State Mulliken Net Atomic Charges

     Atom                 Charge (a.u.)
  ----------------------------------------
      1 C                    -0.074314
      2 C                    -0.324026
      3 C                    -0.064741
      4 H                     0.178185
      5 C                     0.115559
      6 S                    -0.181458
      7 C                    -0.294814
      8 H                     0.121048
      9 H                     0.097512
     10 H                     0.117600
     11 C                    -0.039811
     12 C                    -0.312549
     13 C                     0.055467
     14 H                     0.193420
     15 C                    -0.254053
     16 S                     0.017524
     17 C                    -0.271782
     18 H                     0.101321
     19 H                     0.109226
     20 H                     0.107951
     21 H                     0.195738
     22 H                     0.110716
     23 H                     0.111740
     24 H                     0.184541
  ----------------------------------------
  Sum of atomic charges =     0.000000

                    Cartesian Multipole Moments
 -----------------------------------------------------------------
    Charge (ESU x 10^10)
                -0.0000
    Dipole Moment (Debye)
         X       1.4243      Y       0.1245      Z       4.0522
       Tot       4.2970
    Quadrupole Moments (Debye-Ang)
        XX     -88.7800     XY       4.1209     YY     -76.2092
        XZ       0.8410     YZ      -2.7385     ZZ     -86.1184

 Total job time:  688.02s(wall), 664.54s(cpu)
        *  Thank you very much for using Q-Chem.  Have a nice day.  *
