 Q-Chem 5.4, Q-Chem, Inc., Pleasanton, CA (2021)
 Q-Chem 5.4.0 for Intel X86 EM64T Linux

User input:
--------------------------------------------------------------
$molecule
0 1
C	0.264439	-3.866725	0.728625
C	-0.209794	-3.703963	-0.575519
C	-0.364749	-2.357056	-1.002336
H	-0.446060	-4.561092	-1.224165
C	0.000000	-1.440664	0.000000
S	0.528253	-2.286957	1.451336
C	-0.862253	-1.978743	-2.369885
H	-1.082953	-2.878678	-2.976034
H	-0.115513	-1.376015	-2.927887
H	-1.792797	-1.375728	-2.317620
C	0.000000	0.000000	0.000000
C	0.747916	0.431772	1.099446
C	1.946425	1.123709	0.776721
H	0.428523	0.247378	2.136088
C	2.137531	1.234018	-0.612546
S	0.816154	0.471179	-1.486809
C	2.888455	1.667564	1.814609
H	2.519842	1.454746	2.836676
H	3.008896	2.767543	1.726239
H	3.901271	1.221850	1.726228
H	2.959587	1.708609	-1.161575
H	1.225465	-4.392713	0.745219
H	-0.461378	-4.392347	1.359038
H	-1.014907	-1.440391	0.369273
$end

$rem
JOBTYPE		SP
EXCHANGE	HF
CORRELATION	pRIMP2
BASIS		cc-pvtz
METHOD		rimp2
AUX_BASIS	rimp2-cc-pvtz
SOLVENT_METHOD	PCM
PURECART	11111
SYMMETRY	false
MEM_TOTAL	110000
SCF_CONVERGENCE = 6
THRESH=10
$end

$solvent
dielectric 4.90
$end
--------------------------------------------------------------

             Standard Nuclear Orientation (Angstroms)
    I     Atom           X                Y                Z
 ----------------------------------------------------------------
    1      C       0.2644390000    -3.8667250000     0.7286250000
    2      C      -0.2097940000    -3.7039630000    -0.5755190000
    3      C      -0.3647490000    -2.3570560000    -1.0023360000
    4      H      -0.4460600000    -4.5610920000    -1.2241650000
    5      C       0.0000000000    -1.4406640000     0.0000000000
    6      S       0.5282530000    -2.2869570000     1.4513360000
    7      C      -0.8622530000    -1.9787430000    -2.3698850000
    8      H      -1.0829530000    -2.8786780000    -2.9760340000
    9      H      -0.1155130000    -1.3760150000    -2.9278870000
   10      H      -1.7927970000    -1.3757280000    -2.3176200000
   11      C       0.0000000000     0.0000000000     0.0000000000
   12      C       0.7479160000     0.4317720000     1.0994460000
   13      C       1.9464250000     1.1237090000     0.7767210000
   14      H       0.4285230000     0.2473780000     2.1360880000
   15      C       2.1375310000     1.2340180000    -0.6125460000
   16      S       0.8161540000     0.4711790000    -1.4868090000
   17      C       2.8884550000     1.6675640000     1.8146090000
   18      H       2.5198420000     1.4547460000     2.8366760000
   19      H       3.0088960000     2.7675430000     1.7262390000
   20      H       3.9012710000     1.2218500000     1.7262280000
   21      H       2.9595870000     1.7086090000    -1.1615750000
   22      H       1.2254650000    -4.3927130000     0.7452190000
   23      H      -0.4613780000    -4.3923470000     1.3590380000
   24      H      -1.0149070000    -1.4403910000     0.3692730000
 ----------------------------------------------------------------

   11   -1180.6698120071      6.20e-07  Convergence criterion met
 Total energy in the final basis set =    -1180.6698120071
        RIMP2         total energy =     -1182.6972862242 a.u.

                    Orbital Energies (a.u.)
 --------------------------------------------------------------

 Alpha MOs
 -- Occupied --
-91.9750 -91.9381 -11.2836 -11.2596 -11.2595 -11.2529 -11.2524 -11.2468
-11.2366 -11.2297 -11.2288 -11.2124  -8.9765  -8.9431  -6.6573  -6.6563
 -6.6560  -6.6244  -6.6233  -6.6220  -1.2053  -1.1535  -1.0586  -1.0269
 -1.0081  -0.9560  -0.9124  -0.9037  -0.8096  -0.7729  -0.7278  -0.6984
 -0.6538  -0.6409  -0.6148  -0.5892  -0.5870  -0.5764  -0.5666  -0.5519
 -0.5388  -0.5356  -0.5187  -0.5097  -0.4871  -0.4569  -0.4496  -0.4360
 -0.3573  -0.3351  -0.3284  -0.2531

          Ground-State Mulliken Net Atomic Charges

     Atom                 Charge (a.u.)
  ----------------------------------------
      1 C                    -0.085738
      2 C                    -0.341722
      3 C                    -0.060261
      4 H                     0.174895
      5 C                     0.102363
      6 S                    -0.201848
      7 C                    -0.294651
      8 H                     0.115607
      9 H                     0.111560
     10 H                     0.111192
     11 C                    -0.146268
     12 C                    -0.160899
     13 C                     0.002407
     14 H                     0.196420
     15 C                    -0.186106
     16 S                     0.014237
     17 C                    -0.268650
     18 H                     0.103748
     19 H                     0.108808
     20 H                     0.107172
     21 H                     0.199237
     22 H                     0.107749
     23 H                     0.108670
     24 H                     0.182078
  ----------------------------------------
  Sum of atomic charges =     0.000000

                    Cartesian Multipole Moments
 -----------------------------------------------------------------
    Charge (ESU x 10^10)
                -0.0000
    Dipole Moment (Debye)
         X       0.9742      Y       0.6071      Z      -0.2476
       Tot       1.1743
    Quadrupole Moments (Debye-Ang)
        XX     -82.7759     XY       7.8397     YY     -83.6734
        XZ       0.5809     YZ       3.5477     ZZ     -84.9166

 Total job time:  744.66s(wall), 739.99s(cpu)
        *  Thank you very much for using Q-Chem.  Have a nice day.  *
