 Q-Chem 5.4, Q-Chem, Inc., Pleasanton, CA (2021)
 Q-Chem 5.4.0 for Intel X86 EM64T Linux

User input:
--------------------------------------------------------------
$molecule
0 1
C	0.763475	-3.866725	-0.133897
C	-0.603206	-3.703963	0.106669
C	-1.050446	-2.357056	0.185154
H	-1.283024	-4.561092	0.226709
C	-0.000000	-1.440664	-0.000000
S	1.521018	-2.286957	-0.268206
C	-2.483610	-1.978743	0.437628
H	-3.118875	-2.878678	0.549717
H	-2.903464	-1.376015	-0.394664
H	-2.593726	-1.375728	1.363110
C	0.000000	0.000000	0.000000
C	0.075300	0.860311	1.099446
C	0.195935	2.238951	0.776721
H	0.043151	0.492916	2.136088
C	0.215188	2.458766	-0.612546
S	0.082160	0.938811	-1.486809
C	0.290762	3.322559	1.814609
H	0.253664	2.898542	2.836676
H	-0.541206	4.052140	1.726239
H	1.236797	3.896558	1.726228
H	0.297938	3.404370	-1.161575
H	0.946698	-4.392713	-1.077442
H	1.258274	-4.392347	0.690363
H	0.187427	-1.440391	1.063612
$end

$rem
JOBTYPE		SP
EXCHANGE	HF
CORRELATION	pRIMP2
BASIS		cc-pvtz
METHOD		rimp2
AUX_BASIS	rimp2-cc-pvtz
SOLVENT_METHOD	PCM
PURECART	11111
SYMMETRY	false
MEM_TOTAL	110000
SCF_CONVERGENCE = 6
THRESH=10
$end

$solvent
dielectric 4.90
$end
--------------------------------------------------------------

             Standard Nuclear Orientation (Angstroms)
    I     Atom           X                Y                Z
 ----------------------------------------------------------------
    1      C       0.7634750000    -3.8667250000    -0.1338970000
    2      C      -0.6032060000    -3.7039630000     0.1066690000
    3      C      -1.0504460000    -2.3570560000     0.1851540000
    4      H      -1.2830240000    -4.5610920000     0.2267090000
    5      C       0.0000000000    -1.4406640000     0.0000000000
    6      S       1.5210180000    -2.2869570000    -0.2682060000
    7      C      -2.4836100000    -1.9787430000     0.4376280000
    8      H      -3.1188750000    -2.8786780000     0.5497170000
    9      H      -2.9034640000    -1.3760150000    -0.3946640000
   10      H      -2.5937260000    -1.3757280000     1.3631100000
   11      C       0.0000000000     0.0000000000     0.0000000000
   12      C       0.0753000000     0.8603110000     1.0994460000
   13      C       0.1959350000     2.2389510000     0.7767210000
   14      H       0.0431510000     0.4929160000     2.1360880000
   15      C       0.2151880000     2.4587660000    -0.6125460000
   16      S       0.0821600000     0.9388110000    -1.4868090000
   17      C       0.2907620000     3.3225590000     1.8146090000
   18      H       0.2536640000     2.8985420000     2.8366760000
   19      H      -0.5412060000     4.0521400000     1.7262390000
   20      H       1.2367970000     3.8965580000     1.7262280000
   21      H       0.2979380000     3.4043700000    -1.1615750000
   22      H       0.9466980000    -4.3927130000    -1.0774420000
   23      H       1.2582740000    -4.3923470000     0.6903630000
   24      H       0.1874270000    -1.4403910000     1.0636120000
 ----------------------------------------------------------------

   10   -1180.7642824465      5.03e-07  Convergence criterion met
 Total energy in the final basis set =    -1180.7642824465
        RIMP2         total energy =     -1182.7685717863 a.u.

                    Orbital Energies (a.u.)
 --------------------------------------------------------------

 Alpha MOs
 -- Occupied --
-91.9803 -91.9418 -11.2816 -11.2646 -11.2625 -11.2556 -11.2506 -11.2436
-11.2409 -11.2317 -11.2293 -11.2191  -8.9803  -8.9465  -6.6612  -6.6606
 -6.6601  -6.6278  -6.6268  -6.6255  -1.1981  -1.1536  -1.0581  -1.0264
 -1.0053  -0.9602  -0.9119  -0.9010  -0.8157  -0.7606  -0.7355  -0.7025
 -0.6611  -0.6413  -0.6104  -0.5893  -0.5808  -0.5710  -0.5653  -0.5508
 -0.5417  -0.5300  -0.5130  -0.5062  -0.4921  -0.4815  -0.4604  -0.4483
 -0.3564  -0.3407  -0.3126  -0.2819

          Ground-State Mulliken Net Atomic Charges

     Atom                 Charge (a.u.)
  ----------------------------------------
      1 C                    -0.076554
      2 C                    -0.328681
      3 C                    -0.026114
      4 H                     0.176307
      5 C                     0.087395
      6 S                    -0.173231
      7 C                    -0.266147
      8 H                     0.113188
      9 H                     0.107606
     10 H                     0.099898
     11 C                    -0.082045
     12 C                    -0.241060
     13 C                     0.019987
     14 H                     0.181751
     15 C                    -0.236604
     16 S                     0.006740
     17 C                    -0.272049
     18 H                     0.101882
     19 H                     0.107906
     20 H                     0.108857
     21 H                     0.196706
     22 H                     0.112201
     23 H                     0.111370
     24 H                     0.170689
  ----------------------------------------
  Sum of atomic charges =     0.000000

                    Cartesian Multipole Moments
 -----------------------------------------------------------------
    Charge (ESU x 10^10)
                -0.0000
    Dipole Moment (Debye)
         X      -2.0813      Y       0.5457      Z       2.6938
       Tot       3.4477
    Quadrupole Moments (Debye-Ang)
        XX     -91.5153     XY       4.1686     YY     -73.7011
        XZ       0.3794     YZ      -0.8596     ZZ     -86.1762

 Total job time:  648.31s(wall), 644.66s(cpu)
        *  Thank you very much for using Q-Chem.  Have a nice day.  *
