 Q-Chem 5.4, Q-Chem, Inc., Pleasanton, CA (2021)
 Q-Chem 5.4.0 for Intel X86 EM64T Linux

User input:
--------------------------------------------------------------
$molecule
0 1
C	-0.264439	-3.866725	-0.728625
C	0.209794	-3.703963	0.575519
C	0.364749	-2.357056	1.002336
H	0.446060	-4.561092	1.224165
C	0.000000	-1.440664	0.000000
S	-0.528253	-2.286957	-1.451336
C	0.862253	-1.978743	2.369885
H	1.082953	-2.878678	2.976034
H	0.115513	-1.376015	2.927887
H	1.792797	-1.375728	2.317620
C	0.000000	0.000000	0.000000
C	0.661577	0.555087	1.099446
C	1.721724	1.444630	0.776721
H	0.379056	0.318032	2.136088
C	1.890772	1.586449	-0.612546
S	0.721935	0.605744	-1.486809
C	2.555004	2.143805	1.814609
H	2.228946	1.870211	2.836676
H	2.482605	3.247987	1.726239
H	3.629830	1.880735	1.726228
H	2.617927	2.196579	-1.161575
H	-1.225465	-4.392713	-0.745219
H	0.461378	-4.392347	-1.359038
H	1.014907	-1.440391	-0.369273
$end

$rem
JOBTYPE		SP
EXCHANGE	HF
CORRELATION	pRIMP2
BASIS		cc-pvtz
METHOD		rimp2
AUX_BASIS	rimp2-cc-pvtz
SOLVENT_METHOD	PCM
PURECART	11111
SYMMETRY	false
MEM_TOTAL	110000
SCF_CONVERGENCE = 6
THRESH=10
$end

$solvent
dielectric 4.90
$end
--------------------------------------------------------------

             Standard Nuclear Orientation (Angstroms)
    I     Atom           X                Y                Z
 ----------------------------------------------------------------
    1      C      -0.2644390000    -3.8667250000    -0.7286250000
    2      C       0.2097940000    -3.7039630000     0.5755190000
    3      C       0.3647490000    -2.3570560000     1.0023360000
    4      H       0.4460600000    -4.5610920000     1.2241650000
    5      C       0.0000000000    -1.4406640000     0.0000000000
    6      S      -0.5282530000    -2.2869570000    -1.4513360000
    7      C       0.8622530000    -1.9787430000     2.3698850000
    8      H       1.0829530000    -2.8786780000     2.9760340000
    9      H       0.1155130000    -1.3760150000     2.9278870000
   10      H       1.7927970000    -1.3757280000     2.3176200000
   11      C       0.0000000000     0.0000000000     0.0000000000
   12      C       0.6615770000     0.5550870000     1.0994460000
   13      C       1.7217240000     1.4446300000     0.7767210000
   14      H       0.3790560000     0.3180320000     2.1360880000
   15      C       1.8907720000     1.5864490000    -0.6125460000
   16      S       0.7219350000     0.6057440000    -1.4868090000
   17      C       2.5550040000     2.1438050000     1.8146090000
   18      H       2.2289460000     1.8702110000     2.8366760000
   19      H       2.4826050000     3.2479870000     1.7262390000
   20      H       3.6298300000     1.8807350000     1.7262280000
   21      H       2.6179270000     2.1965790000    -1.1615750000
   22      H      -1.2254650000    -4.3927130000    -0.7452190000
   23      H       0.4613780000    -4.3923470000    -1.3590380000
   24      H       1.0149070000    -1.4403910000    -0.3692730000
 ----------------------------------------------------------------

   10   -1180.7024424266      8.90e-07  Convergence criterion met
 Total energy in the final basis set =    -1180.7024424266
        RIMP2         total energy =     -1182.7236131990 a.u.

                    Orbital Energies (a.u.)
 --------------------------------------------------------------

 Alpha MOs
 -- Occupied --
-91.9770 -91.9375 -11.2739 -11.2713 -11.2628 -11.2579 -11.2522 -11.2428
-11.2407 -11.2330 -11.2304 -11.2198  -8.9782  -8.9427  -6.6590  -6.6583
 -6.6578  -6.6241  -6.6231  -6.6219  -1.2081  -1.1534  -1.0612  -1.0332
 -0.9976  -0.9648  -0.9146  -0.9014  -0.8105  -0.7622  -0.7384  -0.7085
 -0.6530  -0.6454  -0.6122  -0.5962  -0.5828  -0.5715  -0.5625  -0.5508
 -0.5486  -0.5366  -0.5261  -0.5070  -0.4806  -0.4734  -0.4551  -0.4400
 -0.3579  -0.3410  -0.3247  -0.2623

          Ground-State Mulliken Net Atomic Charges

     Atom                 Charge (a.u.)
  ----------------------------------------
      1 C                    -0.075967
      2 C                    -0.317732
      3 C                    -0.055361
      4 H                     0.177330
      5 C                     0.097957
      6 S                    -0.193789
      7 C                    -0.287183
      8 H                     0.118251
      9 H                     0.102491
     10 H                     0.107997
     11 C                    -0.054197
     12 C                    -0.271356
     13 C                     0.033478
     14 H                     0.198255
     15 C                    -0.228782
     16 S                     0.008713
     17 C                    -0.274394
     18 H                     0.102414
     19 H                     0.113700
     20 H                     0.107631
     21 H                     0.199434
     22 H                     0.112732
     23 H                     0.109508
     24 H                     0.168870
  ----------------------------------------
  Sum of atomic charges =     0.000000

                    Cartesian Multipole Moments
 -----------------------------------------------------------------
    Charge (ESU x 10^10)
                -0.0000
    Dipole Moment (Debye)
         X       3.3596      Y       0.0271      Z       3.7185
       Tot       5.0115
    Quadrupole Moments (Debye-Ang)
        XX     -85.2625     XY       3.1780     YY     -79.8288
        XZ       0.4654     YZ      -2.2308     ZZ     -85.4995

 Total job time:  704.57s(wall), 701.81s(cpu)
        *  Thank you very much for using Q-Chem.  Have a nice day.  *
