 Q-Chem 5.4, Q-Chem, Inc., Pleasanton, CA (2021)
 Q-Chem 5.4.0 for Intel X86 EM64T Linux

User input:
--------------------------------------------------------------
$molecule
0 1
C	0.763228	-3.866725	0.135301
C	-0.603311	-3.703963	-0.106073
C	-1.050423	-2.357056	-0.185286
H	-1.283188	-4.561092	-0.225783
C	-0.000000	-1.440664	-0.000000
S	1.521021	-2.286957	0.268187
C	-2.483507	-1.978743	-0.438209
H	-3.118798	-2.878678	-0.550153
H	-2.593381	-1.376015	-1.363906
H	-2.903516	-1.375728	0.393798
C	0.000000	0.000000	0.000000
C	0.365003	0.782674	1.099446
C	0.949885	2.036912	0.776721
H	0.209135	0.448431	2.136088
C	1.043159	2.236886	-0.612546
S	0.398297	0.854094	-1.486809
C	1.409609	3.022738	1.814609
H	1.229726	2.636980	2.836676
H	0.877346	3.992870	1.726239
H	2.494910	3.238558	1.726228
H	1.444334	3.097160	-1.161575
H	1.258111	-4.392713	-0.688674
H	0.946272	-4.392347	1.079084
H	0.187654	-1.440937	-1.063572
$end

$rem
JOBTYPE		SP
EXCHANGE	HF
CORRELATION	pRIMP2
BASIS		cc-pvtz
METHOD		rimp2
AUX_BASIS	rimp2-cc-pvtz
SOLVENT_METHOD	PCM
PURECART	11111
SYMMETRY	false
MEM_TOTAL	110000
SCF_CONVERGENCE = 6
THRESH=10
$end

$solvent
dielectric 4.90
$end
--------------------------------------------------------------

             Standard Nuclear Orientation (Angstroms)
    I     Atom           X                Y                Z
 ----------------------------------------------------------------
    1      C       0.7632280000    -3.8667250000     0.1353010000
    2      C      -0.6033110000    -3.7039630000    -0.1060730000
    3      C      -1.0504230000    -2.3570560000    -0.1852860000
    4      H      -1.2831880000    -4.5610920000    -0.2257830000
    5      C       0.0000000000    -1.4406640000     0.0000000000
    6      S       1.5210210000    -2.2869570000     0.2681870000
    7      C      -2.4835070000    -1.9787430000    -0.4382090000
    8      H      -3.1187980000    -2.8786780000    -0.5501530000
    9      H      -2.5933810000    -1.3760150000    -1.3639060000
   10      H      -2.9035160000    -1.3757280000     0.3937980000
   11      C       0.0000000000     0.0000000000     0.0000000000
   12      C       0.3650030000     0.7826740000     1.0994460000
   13      C       0.9498850000     2.0369120000     0.7767210000
   14      H       0.2091350000     0.4484310000     2.1360880000
   15      C       1.0431590000     2.2368860000    -0.6125460000
   16      S       0.3982970000     0.8540940000    -1.4868090000
   17      C       1.4096090000     3.0227380000     1.8146090000
   18      H       1.2297260000     2.6369800000     2.8366760000
   19      H       0.8773460000     3.9928700000     1.7262390000
   20      H       2.4949100000     3.2385580000     1.7262280000
   21      H       1.4443340000     3.0971600000    -1.1615750000
   22      H       1.2581110000    -4.3927130000    -0.6886740000
   23      H       0.9462720000    -4.3923470000     1.0790840000
   24      H       0.1876540000    -1.4409370000    -1.0635720000
 ----------------------------------------------------------------

   10   -1180.7482893848      5.27e-07  Convergence criterion met
 Total energy in the final basis set =    -1180.7482893848
        RIMP2         total energy =     -1182.7551740874 a.u.

                    Orbital Energies (a.u.)
 --------------------------------------------------------------

 Alpha MOs
 -- Occupied --
-91.9849 -91.9407 -11.2744 -11.2685 -11.2604 -11.2534 -11.2510 -11.2416
-11.2397 -11.2310 -11.2287 -11.2167  -8.9848  -8.9453  -6.6657  -6.6651
 -6.6645  -6.6267  -6.6257  -6.6244  -1.1986  -1.1536  -1.0584  -1.0258
 -1.0024  -0.9621  -0.9127  -0.9002  -0.8116  -0.7640  -0.7392  -0.7030
 -0.6530  -0.6330  -0.6112  -0.5875  -0.5773  -0.5736  -0.5677  -0.5531
 -0.5421  -0.5309  -0.5106  -0.5067  -0.4882  -0.4794  -0.4641  -0.4473
 -0.3567  -0.3396  -0.3131  -0.2799

          Ground-State Mulliken Net Atomic Charges

     Atom                 Charge (a.u.)
  ----------------------------------------
      1 C                    -0.073889
      2 C                    -0.326808
      3 C                    -0.044072
      4 H                     0.174674
      5 C                     0.088741
      6 S                    -0.173779
      7 C                    -0.269772
      8 H                     0.112492
      9 H                     0.101112
     10 H                     0.106713
     11 C                    -0.076874
     12 C                    -0.250949
     13 C                     0.042511
     14 H                     0.183828
     15 C                    -0.239981
     16 S                     0.012410
     17 C                    -0.270588
     18 H                     0.103026
     19 H                     0.107556
     20 H                     0.108075
     21 H                     0.199166
     22 H                     0.109180
     23 H                     0.110222
     24 H                     0.167006
  ----------------------------------------
  Sum of atomic charges =     0.000000

                    Cartesian Multipole Moments
 -----------------------------------------------------------------
    Charge (ESU x 10^10)
                -0.0000
    Dipole Moment (Debye)
         X      -1.3373      Y       0.8075      Z       0.3911
       Tot       1.6104
    Quadrupole Moments (Debye-Ang)
        XX     -89.6480     XY       7.5032     YY     -75.9655
        XZ       0.1597     YZ       2.8028     ZZ     -85.8585

 Total job time:  647.53s(wall), 643.04s(cpu)
        *  Thank you very much for using Q-Chem.  Have a nice day.  *
