 Q-Chem 5.4, Q-Chem, Inc., Pleasanton, CA (2021)
 Q-Chem 5.4.0 for Intel X86 EM64T Linux

User input:
--------------------------------------------------------------
$molecule
0 1
C	0.264439	-3.866725	0.728625
C	-0.209794	-3.703963	-0.575519
C	-0.364749	-2.357056	-1.002336
H	-0.446060	-4.561092	-1.224165
C	-0.000000	-1.440664	-0.000000
S	0.528253	-2.286957	1.451336
C	-0.862253	-1.978743	-2.369885
H	-1.082953	-2.878678	-2.976034
H	-0.115513	-1.376015	-2.927887
H	-1.792797	-1.375728	-2.317620
C	0.000000	0.000000	0.000000
C	0.075300	0.860311	1.099446
C	0.195935	2.238951	0.776721
H	0.043151	0.492916	2.136088
C	0.215188	2.458766	-0.612546
S	0.082160	0.938811	-1.486809
C	0.290762	3.322559	1.814609
H	0.253664	2.898542	2.836676
H	-0.541206	4.052140	1.726239
H	1.236797	3.896558	1.726228
H	0.297938	3.404370	-1.161575
H	1.225465	-4.392713	0.745219
H	-0.461378	-4.392347	1.359038
H	-1.014907	-1.440391	0.369273
$end

$rem
JOBTYPE		SP
EXCHANGE	HF
CORRELATION	pRIMP2
BASIS		cc-pvtz
METHOD		rimp2
AUX_BASIS	rimp2-cc-pvtz
SOLVENT_METHOD	PCM
PURECART	11111
SYMMETRY	false
MEM_TOTAL	110000
SCF_CONVERGENCE = 6
THRESH=10
$end

$solvent
dielectric 4.90
$end
--------------------------------------------------------------

             Standard Nuclear Orientation (Angstroms)
    I     Atom           X                Y                Z
 ----------------------------------------------------------------
    1      C       0.2644390000    -3.8667250000     0.7286250000
    2      C      -0.2097940000    -3.7039630000    -0.5755190000
    3      C      -0.3647490000    -2.3570560000    -1.0023360000
    4      H      -0.4460600000    -4.5610920000    -1.2241650000
    5      C       0.0000000000    -1.4406640000     0.0000000000
    6      S       0.5282530000    -2.2869570000     1.4513360000
    7      C      -0.8622530000    -1.9787430000    -2.3698850000
    8      H      -1.0829530000    -2.8786780000    -2.9760340000
    9      H      -0.1155130000    -1.3760150000    -2.9278870000
   10      H      -1.7927970000    -1.3757280000    -2.3176200000
   11      C       0.0000000000     0.0000000000     0.0000000000
   12      C       0.0753000000     0.8603110000     1.0994460000
   13      C       0.1959350000     2.2389510000     0.7767210000
   14      H       0.0431510000     0.4929160000     2.1360880000
   15      C       0.2151880000     2.4587660000    -0.6125460000
   16      S       0.0821600000     0.9388110000    -1.4868090000
   17      C       0.2907620000     3.3225590000     1.8146090000
   18      H       0.2536640000     2.8985420000     2.8366760000
   19      H      -0.5412060000     4.0521400000     1.7262390000
   20      H       1.2367970000     3.8965580000     1.7262280000
   21      H       0.2979380000     3.4043700000    -1.1615750000
   22      H       1.2254650000    -4.3927130000     0.7452190000
   23      H      -0.4613780000    -4.3923470000     1.3590380000
   24      H      -1.0149070000    -1.4403910000     0.3692730000
 ----------------------------------------------------------------

   10   -1180.7583415938      5.08e-07  Convergence criterion met
 Total energy in the final basis set =    -1180.7583415938
        RIMP2         total energy =     -1182.7642895955 a.u.

                    Orbital Energies (a.u.)
 --------------------------------------------------------------

 Alpha MOs
 -- Occupied --
-91.9818 -91.9463 -11.2902 -11.2661 -11.2610 -11.2535 -11.2503 -11.2440
-11.2332 -11.2315 -11.2276 -11.2230  -8.9817  -8.9509  -6.6626  -6.6620
 -6.6614  -6.6323  -6.6312  -6.6300  -1.2022  -1.1524  -1.0607  -1.0285
 -1.0073  -0.9563  -0.9162  -0.9014  -0.8156  -0.7716  -0.7193  -0.7027
 -0.6621  -0.6473  -0.6110  -0.5897  -0.5824  -0.5731  -0.5680  -0.5544
 -0.5423  -0.5342  -0.5156  -0.5090  -0.4884  -0.4849  -0.4580  -0.4472
 -0.3586  -0.3422  -0.3252  -0.2652

          Ground-State Mulliken Net Atomic Charges

     Atom                 Charge (a.u.)
  ----------------------------------------
      1 C                    -0.074477
      2 C                    -0.321624
      3 C                    -0.040134
      4 H                     0.179084
      5 C                     0.134610
      6 S                    -0.180185
      7 C                    -0.303774
      8 H                     0.119916
      9 H                     0.111237
     10 H                     0.114879
     11 C                    -0.029257
     12 C                    -0.320883
     13 C                     0.045876
     14 H                     0.178017
     15 C                    -0.276043
     16 S                     0.009945
     17 C                    -0.273142
     18 H                     0.102688
     19 H                     0.107964
     20 H                     0.108866
     21 H                     0.195121
     22 H                     0.114233
     23 H                     0.110896
     24 H                     0.186186
  ----------------------------------------
  Sum of atomic charges =     0.000000

                    Cartesian Multipole Moments
 -----------------------------------------------------------------
    Charge (ESU x 10^10)
                -0.0000
    Dipole Moment (Debye)
         X      -1.5621      Y      -0.4241      Z      -0.5953
       Tot       1.7246
    Quadrupole Moments (Debye-Ang)
        XX     -91.8352     XY       3.4503     YY     -73.2081
        XZ       0.0601     YZ       4.0085     ZZ     -85.4447

 Total job time:  654.87s(wall), 650.67s(cpu)
        *  Thank you very much for using Q-Chem.  Have a nice day.  *
