 Q-Chem 5.4, Q-Chem, Inc., Pleasanton, CA (2021)
 Q-Chem 5.4.0 for Intel X86 EM64T Linux

User input:
--------------------------------------------------------------
$molecule
0 1
C	-0.670924	-3.866725	-0.388181
C	0.530648	-3.703963	0.306020
C	0.923703	-2.357056	0.533378
H	1.128579	-4.561092	0.651043
C	-0.000000	-1.440664	-0.000000
S	-1.337567	-2.286957	-0.772234
C	2.183857	-1.978743	1.261192
H	2.742548	-2.878678	1.583666
H	1.970497	-1.376015	2.168641
H	2.863099	-1.375728	0.623012
C	0.000000	0.000000	0.000000
C	0.365003	0.782674	1.099446
C	0.949885	2.036912	0.776721
H	0.209135	0.448431	2.136088
C	1.043159	2.236886	-0.612546
S	0.398297	0.854094	-1.486809
C	1.409609	3.022738	1.814609
H	1.229726	2.636980	2.836676
H	0.877346	3.992870	1.726239
H	2.494910	3.238558	1.726228
H	1.444334	3.097160	-1.161575
H	-1.417779	-4.392713	0.216843
H	-0.520136	-4.392347	-1.337652
H	-0.540100	-1.440937	0.935250
$end

$rem
JOBTYPE		SP
EXCHANGE	HF
CORRELATION	pRIMP2
BASIS		cc-pvtz
METHOD		rimp2
AUX_BASIS	rimp2-cc-pvtz
SOLVENT_METHOD	PCM
PURECART	11111
SYMMETRY	false
MEM_TOTAL	110000
SCF_CONVERGENCE = 6
THRESH=10
$end

$solvent
dielectric 4.90
$end
--------------------------------------------------------------

             Standard Nuclear Orientation (Angstroms)
    I     Atom           X                Y                Z
 ----------------------------------------------------------------
    1      C      -0.6709240000    -3.8667250000    -0.3881810000
    2      C       0.5306480000    -3.7039630000     0.3060200000
    3      C       0.9237030000    -2.3570560000     0.5333780000
    4      H       1.1285790000    -4.5610920000     0.6510430000
    5      C       0.0000000000    -1.4406640000     0.0000000000
    6      S      -1.3375670000    -2.2869570000    -0.7722340000
    7      C       2.1838570000    -1.9787430000     1.2611920000
    8      H       2.7425480000    -2.8786780000     1.5836660000
    9      H       1.9704970000    -1.3760150000     2.1686410000
   10      H       2.8630990000    -1.3757280000     0.6230120000
   11      C       0.0000000000     0.0000000000     0.0000000000
   12      C       0.3650030000     0.7826740000     1.0994460000
   13      C       0.9498850000     2.0369120000     0.7767210000
   14      H       0.2091350000     0.4484310000     2.1360880000
   15      C       1.0431590000     2.2368860000    -0.6125460000
   16      S       0.3982970000     0.8540940000    -1.4868090000
   17      C       1.4096090000     3.0227380000     1.8146090000
   18      H       1.2297260000     2.6369800000     2.8366760000
   19      H       0.8773460000     3.9928700000     1.7262390000
   20      H       2.4949100000     3.2385580000     1.7262280000
   21      H       1.4443340000     3.0971600000    -1.1615750000
   22      H      -1.4177790000    -4.3927130000     0.2168430000
   23      H      -0.5201360000    -4.3923470000    -1.3376520000
   24      H      -0.5401000000    -1.4409370000     0.9352500000
 ----------------------------------------------------------------

   10   -1180.7512398441      5.59e-07  Convergence criterion met
 Total energy in the final basis set =    -1180.7512398441
        RIMP2         total energy =     -1182.7602292064 a.u.

                    Orbital Energies (a.u.)
 --------------------------------------------------------------

 Alpha MOs
 -- Occupied --
-91.9796 -91.9401 -11.2773 -11.2677 -11.2630 -11.2553 -11.2517 -11.2456
-11.2403 -11.2313 -11.2299 -11.2193  -8.9798  -8.9448  -6.6607  -6.6601
 -6.6595  -6.6262  -6.6252  -6.6239  -1.1989  -1.1539  -1.0583  -1.0266
 -1.0042  -0.9619  -0.9117  -0.9014  -0.8145  -0.7603  -0.7346  -0.7058
 -0.6582  -0.6419  -0.6110  -0.5905  -0.5832  -0.5718  -0.5624  -0.5534
 -0.5415  -0.5301  -0.5186  -0.5072  -0.4867  -0.4749  -0.4610  -0.4464
 -0.3545  -0.3420  -0.3173  -0.2763

          Ground-State Mulliken Net Atomic Charges

     Atom                 Charge (a.u.)
  ----------------------------------------
      1 C                    -0.074738
      2 C                    -0.323451
      3 C                    -0.039705
      4 H                     0.176937
      5 C                     0.079645
      6 S                    -0.179459
      7 C                    -0.270692
      8 H                     0.116846
      9 H                     0.097680
     10 H                     0.113538
     11 C                    -0.054180
     12 C                    -0.281025
     13 C                     0.038226
     14 H                     0.191604
     15 C                    -0.236243
     16 S                     0.005424
     17 C                    -0.270816
     18 H                     0.101857
     19 H                     0.108893
     20 H                     0.107983
     21 H                     0.197767
     22 H                     0.109556
     23 H                     0.110270
     24 H                     0.174081
  ----------------------------------------
  Sum of atomic charges =     0.000000

                    Cartesian Multipole Moments
 -----------------------------------------------------------------
    Charge (ESU x 10^10)
                -0.0000
    Dipole Moment (Debye)
         X       2.5865      Y       0.5640      Z       3.4938
       Tot       4.3834
    Quadrupole Moments (Debye-Ang)
        XX     -89.5521     XY       1.8207     YY     -75.5237
        XZ       0.3559     YZ      -2.0343     ZZ     -86.3231

 Total job time:  673.44s(wall), 669.39s(cpu)
        *  Thank you very much for using Q-Chem.  Have a nice day.  *
