 Q-Chem 5.4, Q-Chem, Inc., Pleasanton, CA (2021)
 Q-Chem 5.4.0 for Intel X86 EM64T Linux

User input:
--------------------------------------------------------------
$molecule
0 1
C	0.388181	-3.866725	-0.670924
C	-0.306020	-3.703963	0.530648
C	-0.533378	-2.357056	0.923703
H	-0.651043	-4.561092	1.128579
C	-0.000000	-1.440664	-0.000000
S	0.772234	-2.286957	-1.337567
C	-1.261192	-1.978743	2.183857
H	-1.583666	-2.878678	2.742548
H	-2.168641	-1.376015	1.970497
H	-0.623012	-1.375728	2.863099
C	0.000000	0.000000	0.000000
C	0.555137	0.661535	1.099446
C	1.444710	1.721658	0.776721
H	0.318072	0.379023	2.136088
C	1.586563	1.890676	-0.612546
S	0.605781	0.721904	-1.486809
C	2.143920	2.554907	1.814609
H	1.870325	2.228851	2.836676
H	1.880882	3.629742	1.726239
H	3.248098	2.482476	1.726228
H	2.196723	2.617806	-1.161575
H	-0.216843	-4.392713	-1.417779
H	1.337652	-4.392347	-0.520136
H	0.935250	-1.440391	0.540100
$end

$rem
JOBTYPE		SP
EXCHANGE	HF
CORRELATION	pRIMP2
BASIS		cc-pvtz
METHOD		rimp2
AUX_BASIS	rimp2-cc-pvtz
SOLVENT_METHOD	PCM
PURECART	11111
SYMMETRY	false
MEM_TOTAL	110000
SCF_CONVERGENCE = 6
THRESH=10
$end

$solvent
dielectric 4.90
$end
--------------------------------------------------------------

             Standard Nuclear Orientation (Angstroms)
    I     Atom           X                Y                Z
 ----------------------------------------------------------------
    1      C       0.3881810000    -3.8667250000    -0.6709240000
    2      C      -0.3060200000    -3.7039630000     0.5306480000
    3      C      -0.5333780000    -2.3570560000     0.9237030000
    4      H      -0.6510430000    -4.5610920000     1.1285790000
    5      C       0.0000000000    -1.4406640000     0.0000000000
    6      S       0.7722340000    -2.2869570000    -1.3375670000
    7      C      -1.2611920000    -1.9787430000     2.1838570000
    8      H      -1.5836660000    -2.8786780000     2.7425480000
    9      H      -2.1686410000    -1.3760150000     1.9704970000
   10      H      -0.6230120000    -1.3757280000     2.8630990000
   11      C       0.0000000000     0.0000000000     0.0000000000
   12      C       0.5551370000     0.6615350000     1.0994460000
   13      C       1.4447100000     1.7216580000     0.7767210000
   14      H       0.3180720000     0.3790230000     2.1360880000
   15      C       1.5865630000     1.8906760000    -0.6125460000
   16      S       0.6057810000     0.7219040000    -1.4868090000
   17      C       2.1439200000     2.5549070000     1.8146090000
   18      H       1.8703250000     2.2288510000     2.8366760000
   19      H       1.8808820000     3.6297420000     1.7262390000
   20      H       3.2480980000     2.4824760000     1.7262280000
   21      H       2.1967230000     2.6178060000    -1.1615750000
   22      H      -0.2168430000    -4.3927130000    -1.4177790000
   23      H       1.3376520000    -4.3923470000    -0.5201360000
   24      H       0.9352500000    -1.4403910000     0.5401000000
 ----------------------------------------------------------------

   10   -1180.7203587332      8.20e-07  Convergence criterion met
 Total energy in the final basis set =    -1180.7203587332
        RIMP2         total energy =     -1182.7363157455 a.u.

                    Orbital Energies (a.u.)
 --------------------------------------------------------------

 Alpha MOs
 -- Occupied --
-91.9848 -91.9415 -11.2797 -11.2635 -11.2611 -11.2546 -11.2520 -11.2387
-11.2364 -11.2329 -11.2293 -11.2182  -8.9847  -8.9461  -6.6655  -6.6649
 -6.6644  -6.6274  -6.6263  -6.6250  -1.2040  -1.1526  -1.0591  -1.0308
 -1.0005  -0.9617  -0.9119  -0.9009  -0.8154  -0.7594  -0.7292  -0.7033
 -0.6623  -0.6449  -0.6101  -0.5898  -0.5861  -0.5704  -0.5596  -0.5549
 -0.5418  -0.5340  -0.5178  -0.5062  -0.4860  -0.4790  -0.4653  -0.4380
 -0.3567  -0.3439  -0.3226  -0.2588

          Ground-State Mulliken Net Atomic Charges

     Atom                 Charge (a.u.)
  ----------------------------------------
      1 C                    -0.082789
      2 C                    -0.317279
      3 C                    -0.066610
      4 H                     0.174441
      5 C                     0.094752
      6 S                    -0.178669
      7 C                    -0.286560
      8 H                     0.117330
      9 H                     0.113382
     10 H                     0.098884
     11 C                    -0.055845
     12 C                    -0.247632
     13 C                     0.023176
     14 H                     0.187131
     15 C                    -0.251064
     16 S                     0.022793
     17 C                    -0.270107
     18 H                     0.101035
     19 H                     0.108518
     20 H                     0.106942
     21 H                     0.198525
     22 H                     0.108166
     23 H                     0.109986
     24 H                     0.191495
  ----------------------------------------
  Sum of atomic charges =     0.000000

                    Cartesian Multipole Moments
 -----------------------------------------------------------------
    Charge (ESU x 10^10)
                -0.0000
    Dipole Moment (Debye)
         X       0.7730      Y       0.1139      Z       3.7634
       Tot       3.8437
    Quadrupole Moments (Debye-Ang)
        XX     -86.9300     XY       5.6845     YY     -78.8982
        XZ       0.3782     YZ      -3.1090     ZZ     -85.7235

 Total job time:  670.62s(wall), 666.95s(cpu)
        *  Thank you very much for using Q-Chem.  Have a nice day.  *
