 Q-Chem 5.4, Q-Chem, Inc., Pleasanton, CA (2021)
 Q-Chem 5.4.0 for Intel X86 EM64T Linux

User input:
--------------------------------------------------------------
$molecule
0 1
C	-0.728625	-3.866725	0.264439
C	0.575519	-3.703963	-0.209794
C	1.002336	-2.357056	-0.364749
H	1.224165	-4.561092	-0.446060
C	-0.000000	-1.440664	-0.000000
S	-1.451336	-2.286957	0.528253
C	2.369885	-1.978743	-0.862253
H	2.976034	-2.878678	-1.082953
H	2.927887	-1.376015	-0.115513
H	2.317620	-1.375728	-1.792797
C	0.000000	0.000000	0.000000
C	0.075300	0.860311	1.099446
C	0.195935	2.238951	0.776721
H	0.043151	0.492916	2.136088
C	0.215188	2.458766	-0.612546
S	0.082160	0.938811	-1.486809
C	0.290762	3.322559	1.814609
H	0.253664	2.898542	2.836676
H	-0.541206	4.052140	1.726239
H	1.236797	3.896558	1.726228
H	0.297938	3.404370	-1.161575
H	-0.745219	-4.392713	1.225465
H	-1.359038	-4.392347	-0.461378
H	0.369273	-1.440937	1.014907
$end

$rem
JOBTYPE		SP
EXCHANGE	HF
CORRELATION	pRIMP2
BASIS		cc-pvtz
METHOD		rimp2
AUX_BASIS	rimp2-cc-pvtz
SOLVENT_METHOD	PCM
PURECART	11111
SYMMETRY	false
MEM_TOTAL	110000
SCF_CONVERGENCE = 6
THRESH=10
$end

$solvent
dielectric 4.90
$end
--------------------------------------------------------------

             Standard Nuclear Orientation (Angstroms)
    I     Atom           X                Y                Z
 ----------------------------------------------------------------
    1      C      -0.7286250000    -3.8667250000     0.2644390000
    2      C       0.5755190000    -3.7039630000    -0.2097940000
    3      C       1.0023360000    -2.3570560000    -0.3647490000
    4      H       1.2241650000    -4.5610920000    -0.4460600000
    5      C       0.0000000000    -1.4406640000     0.0000000000
    6      S      -1.4513360000    -2.2869570000     0.5282530000
    7      C       2.3698850000    -1.9787430000    -0.8622530000
    8      H       2.9760340000    -2.8786780000    -1.0829530000
    9      H       2.9278870000    -1.3760150000    -0.1155130000
   10      H       2.3176200000    -1.3757280000    -1.7927970000
   11      C       0.0000000000     0.0000000000     0.0000000000
   12      C       0.0753000000     0.8603110000     1.0994460000
   13      C       0.1959350000     2.2389510000     0.7767210000
   14      H       0.0431510000     0.4929160000     2.1360880000
   15      C       0.2151880000     2.4587660000    -0.6125460000
   16      S       0.0821600000     0.9388110000    -1.4868090000
   17      C       0.2907620000     3.3225590000     1.8146090000
   18      H       0.2536640000     2.8985420000     2.8366760000
   19      H      -0.5412060000     4.0521400000     1.7262390000
   20      H       1.2367970000     3.8965580000     1.7262280000
   21      H       0.2979380000     3.4043700000    -1.1615750000
   22      H      -0.7452190000    -4.3927130000     1.2254650000
   23      H      -1.3590380000    -4.3923470000    -0.4613780000
   24      H       0.3692730000    -1.4409370000     1.0149070000
 ----------------------------------------------------------------

   10   -1180.7628617623      4.99e-07  Convergence criterion met
 Total energy in the final basis set =    -1180.7628617623
        RIMP2         total energy =     -1182.7677403595 a.u.

                    Orbital Energies (a.u.)
 --------------------------------------------------------------

 Alpha MOs
 -- Occupied --
-91.9811 -91.9412 -11.2827 -11.2634 -11.2633 -11.2558 -11.2509 -11.2422
-11.2409 -11.2314 -11.2292 -11.2199  -8.9810  -8.9459  -6.6620  -6.6614
 -6.6609  -6.6272  -6.6262  -6.6249  -1.1985  -1.1535  -1.0584  -1.0255
 -1.0070  -0.9590  -0.9125  -0.9011  -0.8146  -0.7643  -0.7333  -0.7009
 -0.6615  -0.6414  -0.6105  -0.5881  -0.5797  -0.5724  -0.5670  -0.5510
 -0.5418  -0.5309  -0.5144  -0.5056  -0.4927  -0.4810  -0.4592  -0.4487
 -0.3556  -0.3426  -0.3145  -0.2779

          Ground-State Mulliken Net Atomic Charges

     Atom                 Charge (a.u.)
  ----------------------------------------
      1 C                    -0.078683
      2 C                    -0.326942
      3 C                    -0.018590
      4 H                     0.176997
      5 C                     0.086620
      6 S                    -0.177831
      7 C                    -0.267545
      8 H                     0.113719
      9 H                     0.103838
     10 H                     0.106499
     11 C                    -0.080674
     12 C                    -0.247338
     13 C                     0.023427
     14 H                     0.182920
     15 C                    -0.241073
     16 S                     0.007053
     17 C                    -0.271641
     18 H                     0.102292
     19 H                     0.108712
     20 H                     0.107911
     21 H                     0.196506
     22 H                     0.110938
     23 H                     0.112955
     24 H                     0.169933
  ----------------------------------------
  Sum of atomic charges =     0.000000

                    Cartesian Multipole Moments
 -----------------------------------------------------------------
    Charge (ESU x 10^10)
                -0.0000
    Dipole Moment (Debye)
         X       2.7216      Y       0.4750      Z       1.4125
       Tot       3.1029
    Quadrupole Moments (Debye-Ang)
        XX     -91.8729     XY      -3.0349     YY     -73.7724
        XZ      -0.1914     YZ       1.0964     ZZ     -85.8153

 Total job time:  648.63s(wall), 644.98s(cpu)
        *  Thank you very much for using Q-Chem.  Have a nice day.  *
