 Q-Chem 5.4, Q-Chem, Inc., Pleasanton, CA (2021)
 Q-Chem 5.4.0 for Intel X86 EM64T Linux

User input:
--------------------------------------------------------------
$molecule
0 1
C	0.264439	-3.866725	0.728625
C	-0.209794	-3.703963	-0.575519
C	-0.364749	-2.357056	-1.002336
H	-0.446060	-4.561092	-1.224165
C	0.000000	-1.440664	0.000000
S	0.528253	-2.286957	1.451336
C	-0.862253	-1.978743	-2.369885
H	-1.082953	-2.878678	-2.976034
H	-0.115513	-1.376015	-2.927887
H	-1.792797	-1.375728	-2.317620
C	0.000000	0.000000	0.000000
C	0.223548	0.834165	1.099446
C	0.581748	2.170912	0.776721
H	0.128089	0.477934	2.136088
C	0.638880	2.384045	-0.612546
S	0.243934	0.910282	-1.486809
C	0.863301	3.221592	1.814609
H	0.753137	2.810458	2.836676
H	0.170663	4.084559	1.726239
H	1.894637	3.622593	1.726228
H	0.884575	3.300913	-1.161575
H	1.225465	-4.392713	0.745219
H	-0.461378	-4.392347	1.359038
H	-1.014907	-1.440391	0.369273
$end

$rem
JOBTYPE		SP
EXCHANGE	HF
CORRELATION	pRIMP2
BASIS		cc-pvtz
METHOD		rimp2
AUX_BASIS	rimp2-cc-pvtz
SOLVENT_METHOD	PCM
PURECART	11111
SYMMETRY	false
MEM_TOTAL	110000
SCF_CONVERGENCE = 6
THRESH=10
$end

$solvent
dielectric 4.90
$end
--------------------------------------------------------------

             Standard Nuclear Orientation (Angstroms)
    I     Atom           X                Y                Z
 ----------------------------------------------------------------
    1      C       0.2644390000    -3.8667250000     0.7286250000
    2      C      -0.2097940000    -3.7039630000    -0.5755190000
    3      C      -0.3647490000    -2.3570560000    -1.0023360000
    4      H      -0.4460600000    -4.5610920000    -1.2241650000
    5      C       0.0000000000    -1.4406640000     0.0000000000
    6      S       0.5282530000    -2.2869570000     1.4513360000
    7      C      -0.8622530000    -1.9787430000    -2.3698850000
    8      H      -1.0829530000    -2.8786780000    -2.9760340000
    9      H      -0.1155130000    -1.3760150000    -2.9278870000
   10      H      -1.7927970000    -1.3757280000    -2.3176200000
   11      C       0.0000000000     0.0000000000     0.0000000000
   12      C       0.2235480000     0.8341650000     1.0994460000
   13      C       0.5817480000     2.1709120000     0.7767210000
   14      H       0.1280890000     0.4779340000     2.1360880000
   15      C       0.6388800000     2.3840450000    -0.6125460000
   16      S       0.2439340000     0.9102820000    -1.4868090000
   17      C       0.8633010000     3.2215920000     1.8146090000
   18      H       0.7531370000     2.8104580000     2.8366760000
   19      H       0.1706630000     4.0845590000     1.7262390000
   20      H       1.8946370000     3.6225930000     1.7262280000
   21      H       0.8845750000     3.3009130000    -1.1615750000
   22      H       1.2254650000    -4.3927130000     0.7452190000
   23      H      -0.4613780000    -4.3923470000     1.3590380000
   24      H      -1.0149070000    -1.4403910000     0.3692730000
 ----------------------------------------------------------------

   10   -1180.7534378146      5.11e-07  Convergence criterion met
 Total energy in the final basis set =    -1180.7534378146
        RIMP2         total energy =     -1182.7608438525 a.u.

                    Orbital Energies (a.u.)
 --------------------------------------------------------------

 Alpha MOs
 -- Occupied --
-91.9812 -91.9459 -11.2880 -11.2657 -11.2596 -11.2554 -11.2505 -11.2435
-11.2335 -11.2331 -11.2278 -11.2223  -8.9812  -8.9505  -6.6622  -6.6616
 -6.6609  -6.6318  -6.6308  -6.6295  -1.2019  -1.1526  -1.0603  -1.0283
 -1.0072  -0.9565  -0.9160  -0.9015  -0.8154  -0.7714  -0.7197  -0.7027
 -0.6611  -0.6468  -0.6109  -0.5899  -0.5827  -0.5737  -0.5678  -0.5542
 -0.5418  -0.5344  -0.5155  -0.5098  -0.4877  -0.4827  -0.4581  -0.4468
 -0.3584  -0.3420  -0.3252  -0.2646

          Ground-State Mulliken Net Atomic Charges

     Atom                 Charge (a.u.)
  ----------------------------------------
      1 C                    -0.075578
      2 C                    -0.322108
      3 C                    -0.045173
      4 H                     0.178719
      5 C                     0.134212
      6 S                    -0.180110
      7 C                    -0.303495
      8 H                     0.120081
      9 H                     0.111821
     10 H                     0.114404
     11 C                    -0.021483
     12 C                    -0.335349
     13 C                     0.058118
     14 H                     0.178725
     15 C                    -0.275528
     16 S                     0.012226
     17 C                    -0.272295
     18 H                     0.102718
     19 H                     0.107990
     20 H                     0.109095
     21 H                     0.194591
     22 H                     0.113587
     23 H                     0.110966
     24 H                     0.183864
  ----------------------------------------
  Sum of atomic charges =     0.000000

                    Cartesian Multipole Moments
 -----------------------------------------------------------------
    Charge (ESU x 10^10)
                -0.0000
    Dipole Moment (Debye)
         X      -1.3005      Y      -0.3107      Z      -0.5472
       Tot       1.4447
    Quadrupole Moments (Debye-Ang)
        XX     -91.2462     XY       5.0995     YY     -73.8590
        XZ       0.2785     YZ       3.9953     ZZ     -85.4307

 Total job time:  663.67s(wall), 658.48s(cpu)
        *  Thank you very much for using Q-Chem.  Have a nice day.  *
