 Q-Chem 5.4, Q-Chem, Inc., Pleasanton, CA (2021)
 Q-Chem 5.4.0 for Intel X86 EM64T Linux

User input:
--------------------------------------------------------------
$molecule
0 1
C	-0.265779	-3.866725	0.728138
C	0.209225	-3.703963	-0.575726
C	0.364875	-2.357056	-1.002290
H	0.445176	-4.561092	-1.224486
C	0.000000	-1.440664	0.000000
S	-0.528236	-2.286957	1.451343
C	0.862808	-1.978743	-2.369683
H	1.083368	-2.878678	-2.975883
H	1.793522	-1.376015	-2.317142
H	0.116375	-1.375728	-2.927787
C	0.000000	0.000000	0.000000
C	0.431829	0.747884	1.099446
C	1.123799	1.946373	0.776721
H	0.247423	0.428497	2.136088
C	1.234147	2.137457	-0.612546
S	0.471221	0.816130	-1.486809
C	1.667694	2.888380	1.814609
H	1.454874	2.519768	2.836676
H	1.222009	3.901210	1.726239
H	2.767675	3.008788	1.726228
H	1.708773	2.959493	-1.161575
H	0.459743	-4.392713	1.358585
H	-1.227009	-4.392347	0.744515
H	1.014829	-1.440937	0.369490
$end

$rem
JOBTYPE		SP
EXCHANGE	HF
CORRELATION	pRIMP2
BASIS		cc-pvtz
METHOD		rimp2
AUX_BASIS	rimp2-cc-pvtz
SOLVENT_METHOD	PCM
PURECART	11111
SYMMETRY	false
MEM_TOTAL	110000
SCF_CONVERGENCE = 6
THRESH=10
$end

$solvent
dielectric 4.90
$end
--------------------------------------------------------------

             Standard Nuclear Orientation (Angstroms)
    I     Atom           X                Y                Z
 ----------------------------------------------------------------
    1      C      -0.2657790000    -3.8667250000     0.7281380000
    2      C       0.2092250000    -3.7039630000    -0.5757260000
    3      C       0.3648750000    -2.3570560000    -1.0022900000
    4      H       0.4451760000    -4.5610920000    -1.2244860000
    5      C       0.0000000000    -1.4406640000     0.0000000000
    6      S      -0.5282360000    -2.2869570000     1.4513430000
    7      C       0.8628080000    -1.9787430000    -2.3696830000
    8      H       1.0833680000    -2.8786780000    -2.9758830000
    9      H       1.7935220000    -1.3760150000    -2.3171420000
   10      H       0.1163750000    -1.3757280000    -2.9277870000
   11      C       0.0000000000     0.0000000000     0.0000000000
   12      C       0.4318290000     0.7478840000     1.0994460000
   13      C       1.1237990000     1.9463730000     0.7767210000
   14      H       0.2474230000     0.4284970000     2.1360880000
   15      C       1.2341470000     2.1374570000    -0.6125460000
   16      S       0.4712210000     0.8161300000    -1.4868090000
   17      C       1.6676940000     2.8883800000     1.8146090000
   18      H       1.4548740000     2.5197680000     2.8366760000
   19      H       1.2220090000     3.9012100000     1.7262390000
   20      H       2.7676750000     3.0087880000     1.7262280000
   21      H       1.7087730000     2.9594930000    -1.1615750000
   22      H       0.4597430000    -4.3927130000     1.3585850000
   23      H      -1.2270090000    -4.3923470000     0.7445150000
   24      H       1.0148290000    -1.4409370000     0.3694900000
 ----------------------------------------------------------------

   10   -1180.7353106456      5.42e-07  Convergence criterion met
 Total energy in the final basis set =    -1180.7353106456
        RIMP2         total energy =     -1182.7480632948 a.u.

                    Orbital Energies (a.u.)
 --------------------------------------------------------------

 Alpha MOs
 -- Occupied --
-91.9805 -91.9435 -11.2851 -11.2643 -11.2597 -11.2577 -11.2503 -11.2428
-11.2323 -11.2304 -11.2280 -11.2206  -8.9809  -8.9483  -6.6617  -6.6611
 -6.6605  -6.6297  -6.6287  -6.6274  -1.2036  -1.1521  -1.0605  -1.0275
 -1.0069  -0.9553  -0.9143  -0.9025  -0.8111  -0.7717  -0.7204  -0.7014
 -0.6633  -0.6459  -0.6111  -0.5867  -0.5828  -0.5730  -0.5685  -0.5539
 -0.5422  -0.5326  -0.5163  -0.5128  -0.4911  -0.4740  -0.4549  -0.4443
 -0.3568  -0.3407  -0.3250  -0.2626

          Ground-State Mulliken Net Atomic Charges

     Atom                 Charge (a.u.)
  ----------------------------------------
      1 C                    -0.073719
      2 C                    -0.319968
      3 C                    -0.043840
      4 H                     0.178542
      5 C                     0.076649
      6 S                    -0.188991
      7 C                    -0.295523
      8 H                     0.114641
      9 H                     0.114435
     10 H                     0.110111
     11 C                    -0.012028
     12 C                    -0.286514
     13 C                     0.036617
     14 H                     0.180329
     15 C                    -0.268277
     16 S                     0.013345
     17 C                    -0.270148
     18 H                     0.102883
     19 H                     0.108546
     20 H                     0.106773
     21 H                     0.196968
     22 H                     0.110657
     23 H                     0.113167
     24 H                     0.195344
  ----------------------------------------
  Sum of atomic charges =     0.000000

                    Cartesian Multipole Moments
 -----------------------------------------------------------------
    Charge (ESU x 10^10)
                -0.0000
    Dipole Moment (Debye)
         X       2.4798      Y      -0.2570      Z      -0.7519
       Tot       2.6040
    Quadrupole Moments (Debye-Ang)
        XX     -89.2867     XY       1.7987     YY     -76.6451
        XZ       0.6062     YZ       3.6328     ZZ     -85.3337

 Total job time:  664.86s(wall), 660.69s(cpu)
        *  Thank you very much for using Q-Chem.  Have a nice day.  *
