 Q-Chem 5.4, Q-Chem, Inc., Pleasanton, CA (2021)
 Q-Chem 5.4.0 for Intel X86 EM64T Linux

User input:
--------------------------------------------------------------
$molecule
0 1
C	0.728138	-3.866725	0.265779
C	-0.575726	-3.703963	-0.209225
C	-1.002290	-2.357056	-0.364875
H	-1.224486	-4.561092	-0.445176
C	-0.000000	-1.440664	-0.000000
S	1.451343	-2.286957	0.528236
C	-2.369683	-1.978743	-0.862808
H	-2.975883	-2.878678	-1.083368
H	-2.317142	-1.376015	-1.793522
H	-2.927787	-1.375728	-0.116375
C	0.000000	0.000000	0.000000
C	0.365003	0.782674	1.099446
C	0.949885	2.036912	0.776721
H	0.209135	0.448431	2.136088
C	1.043159	2.236886	-0.612546
S	0.398297	0.854094	-1.486809
C	1.409609	3.022738	1.814609
H	1.229726	2.636980	2.836676
H	0.877346	3.992870	1.726239
H	2.494910	3.238558	1.726228
H	1.444334	3.097160	-1.161575
H	1.358585	-4.392713	-0.459743
H	0.744515	-4.392347	1.227009
H	0.369490	-1.440937	-1.014829
$end

$rem
JOBTYPE		SP
EXCHANGE	HF
CORRELATION	pRIMP2
BASIS		cc-pvtz
METHOD		rimp2
AUX_BASIS	rimp2-cc-pvtz
SOLVENT_METHOD	PCM
PURECART	11111
SYMMETRY	false
MEM_TOTAL	110000
SCF_CONVERGENCE = 6
THRESH=10
$end

$solvent
dielectric 4.90
$end
--------------------------------------------------------------

             Standard Nuclear Orientation (Angstroms)
    I     Atom           X                Y                Z
 ----------------------------------------------------------------
    1      C       0.7281380000    -3.8667250000     0.2657790000
    2      C      -0.5757260000    -3.7039630000    -0.2092250000
    3      C      -1.0022900000    -2.3570560000    -0.3648750000
    4      H      -1.2244860000    -4.5610920000    -0.4451760000
    5      C       0.0000000000    -1.4406640000     0.0000000000
    6      S       1.4513430000    -2.2869570000     0.5282360000
    7      C      -2.3696830000    -1.9787430000    -0.8628080000
    8      H      -2.9758830000    -2.8786780000    -1.0833680000
    9      H      -2.3171420000    -1.3760150000    -1.7935220000
   10      H      -2.9277870000    -1.3757280000    -0.1163750000
   11      C       0.0000000000     0.0000000000     0.0000000000
   12      C       0.3650030000     0.7826740000     1.0994460000
   13      C       0.9498850000     2.0369120000     0.7767210000
   14      H       0.2091350000     0.4484310000     2.1360880000
   15      C       1.0431590000     2.2368860000    -0.6125460000
   16      S       0.3982970000     0.8540940000    -1.4868090000
   17      C       1.4096090000     3.0227380000     1.8146090000
   18      H       1.2297260000     2.6369800000     2.8366760000
   19      H       0.8773460000     3.9928700000     1.7262390000
   20      H       2.4949100000     3.2385580000     1.7262280000
   21      H       1.4443340000     3.0971600000    -1.1615750000
   22      H       1.3585850000    -4.3927130000    -0.4597430000
   23      H       0.7445150000    -4.3923470000     1.2270090000
   24      H       0.3694900000    -1.4409370000    -1.0148290000
 ----------------------------------------------------------------

   10   -1180.7481734637      5.23e-07  Convergence criterion met
 Total energy in the final basis set =    -1180.7481734637
        RIMP2         total energy =     -1182.7549447825 a.u.

                    Orbital Energies (a.u.)
 --------------------------------------------------------------

 Alpha MOs
 -- Occupied --
-91.9841 -91.9413 -11.2760 -11.2674 -11.2604 -11.2536 -11.2510 -11.2413
-11.2398 -11.2312 -11.2287 -11.2170  -8.9841  -8.9459  -6.6650  -6.6644
 -6.6638  -6.6272  -6.6262  -6.6249  -1.1991  -1.1535  -1.0587  -1.0258
 -1.0030  -0.9615  -0.9132  -0.9001  -0.8116  -0.7657  -0.7365  -0.7030
 -0.6533  -0.6342  -0.6111  -0.5883  -0.5769  -0.5741  -0.5681  -0.5530
 -0.5420  -0.5316  -0.5116  -0.5068  -0.4872  -0.4801  -0.4636  -0.4469
 -0.3559  -0.3411  -0.3157  -0.2768

          Ground-State Mulliken Net Atomic Charges

     Atom                 Charge (a.u.)
  ----------------------------------------
      1 C                    -0.074812
      2 C                    -0.326967
      3 C                    -0.044778
      4 H                     0.174659
      5 C                     0.092097
      6 S                    -0.175161
      7 C                    -0.270064
      8 H                     0.113017
      9 H                     0.100029
     10 H                     0.108064
     11 C                    -0.065441
     12 C                    -0.270922
     13 C                     0.048772
     14 H                     0.185427
     15 C                    -0.241492
     16 S                     0.010767
     17 C                    -0.270588
     18 H                     0.103051
     19 H                     0.107762
     20 H                     0.108197
     21 H                     0.198714
     22 H                     0.109622
     23 H                     0.109664
     24 H                     0.170384
  ----------------------------------------
  Sum of atomic charges =     0.000000

                    Cartesian Multipole Moments
 -----------------------------------------------------------------
    Charge (ESU x 10^10)
                -0.0000
    Dipole Moment (Debye)
         X      -1.1265      Y       0.7187      Z       0.0257
       Tot       1.3364
    Quadrupole Moments (Debye-Ang)
        XX     -89.5507     XY       7.0561     YY     -75.9752
        XZ       0.2483     YZ       3.3979     ZZ     -85.9612

 Total job time:  644.29s(wall), 640.41s(cpu)
        *  Thank you very much for using Q-Chem.  Have a nice day.  *
