 Q-Chem 5.4, Q-Chem, Inc., Pleasanton, CA (2021)
 Q-Chem 5.4.0 for Intel X86 EM64T Linux

User input:
--------------------------------------------------------------
$molecule
0 1
C	-0.497696	-3.866725	-0.594240
C	0.393981	-3.703963	0.469057
C	0.685571	-2.357056	0.817136
H	0.837848	-4.561092	0.997777
C	0.000000	-1.440664	0.000000
S	-0.992782	-2.286957	-1.183137
C	1.620802	-1.978743	1.932056
H	2.035506	-2.878678	2.426166
H	1.109943	-1.376015	2.711806
H	2.477350	-1.375728	1.564678
C	0.000000	0.000000	0.000000
C	0.661577	0.555087	1.099446
C	1.721724	1.444630	0.776721
H	0.379056	0.318032	2.136088
C	1.890772	1.586449	-0.612546
S	0.721935	0.605744	-1.486809
C	2.555004	2.143805	1.814609
H	2.228946	1.870211	2.836676
H	2.482605	3.247987	1.726239
H	3.629830	1.880735	1.726228
H	2.617927	2.196579	-1.161575
H	-1.406441	-4.392713	-0.281143
H	-0.031265	-4.392347	-1.434879
H	0.827402	-1.440391	-0.694122
$end

$rem
JOBTYPE		SP
EXCHANGE	HF
CORRELATION	pRIMP2
BASIS		cc-pvtz
METHOD		rimp2
AUX_BASIS	rimp2-cc-pvtz
SOLVENT_METHOD	PCM
PURECART	11111
SYMMETRY	false
MEM_TOTAL	110000
SCF_CONVERGENCE = 6
THRESH=10
$end

$solvent
dielectric 4.90
$end
--------------------------------------------------------------

             Standard Nuclear Orientation (Angstroms)
    I     Atom           X                Y                Z
 ----------------------------------------------------------------
    1      C      -0.4976960000    -3.8667250000    -0.5942400000
    2      C       0.3939810000    -3.7039630000     0.4690570000
    3      C       0.6855710000    -2.3570560000     0.8171360000
    4      H       0.8378480000    -4.5610920000     0.9977770000
    5      C       0.0000000000    -1.4406640000     0.0000000000
    6      S      -0.9927820000    -2.2869570000    -1.1831370000
    7      C       1.6208020000    -1.9787430000     1.9320560000
    8      H       2.0355060000    -2.8786780000     2.4261660000
    9      H       1.1099430000    -1.3760150000     2.7118060000
   10      H       2.4773500000    -1.3757280000     1.5646780000
   11      C       0.0000000000     0.0000000000     0.0000000000
   12      C       0.6615770000     0.5550870000     1.0994460000
   13      C       1.7217240000     1.4446300000     0.7767210000
   14      H       0.3790560000     0.3180320000     2.1360880000
   15      C       1.8907720000     1.5864490000    -0.6125460000
   16      S       0.7219350000     0.6057440000    -1.4868090000
   17      C       2.5550040000     2.1438050000     1.8146090000
   18      H       2.2289460000     1.8702110000     2.8366760000
   19      H       2.4826050000     3.2479870000     1.7262390000
   20      H       3.6298300000     1.8807350000     1.7262280000
   21      H       2.6179270000     2.1965790000    -1.1615750000
   22      H      -1.4064410000    -4.3927130000    -0.2811430000
   23      H      -0.0312650000    -4.3923470000    -1.4348790000
   24      H       0.8274020000    -1.4403910000    -0.6941220000
 ----------------------------------------------------------------

   10   -1180.7011856629      7.90e-07  Convergence criterion met
 Total energy in the final basis set =    -1180.7011856629
        RIMP2         total energy =     -1182.7213752921 a.u.

                    Orbital Energies (a.u.)
 --------------------------------------------------------------

 Alpha MOs
 -- Occupied --
-91.9763 -91.9357 -11.2777 -11.2675 -11.2618 -11.2528 -11.2528 -11.2506
-11.2390 -11.2311 -11.2310 -11.2173  -8.9777  -8.9409  -6.6586  -6.6578
 -6.6574  -6.6223  -6.6212  -6.6200  -1.2069  -1.1538  -1.0609  -1.0305
 -0.9983  -0.9665  -0.9130  -0.9015  -0.8078  -0.7608  -0.7470  -0.7087
 -0.6493  -0.6397  -0.6130  -0.5937  -0.5808  -0.5729  -0.5669  -0.5536
 -0.5457  -0.5339  -0.5238  -0.5094  -0.4822  -0.4687  -0.4545  -0.4426
 -0.3527  -0.3442  -0.3245  -0.2635

          Ground-State Mulliken Net Atomic Charges

     Atom                 Charge (a.u.)
  ----------------------------------------
      1 C                    -0.070801
      2 C                    -0.331646
      3 C                    -0.049716
      4 H                     0.176878
      5 C                     0.104214
      6 S                    -0.203328
      7 C                    -0.291735
      8 H                     0.119366
      9 H                     0.102562
     10 H                     0.109110
     11 C                    -0.081380
     12 C                    -0.228124
     13 C                     0.011616
     14 H                     0.191109
     15 C                    -0.207243
     16 S                     0.000573
     17 C                    -0.273962
     18 H                     0.103645
     19 H                     0.116094
     20 H                     0.107685
     21 H                     0.200644
     22 H                     0.110424
     23 H                     0.107939
     24 H                     0.176076
  ----------------------------------------
  Sum of atomic charges =     0.000000

                    Cartesian Multipole Moments
 -----------------------------------------------------------------
    Charge (ESU x 10^10)
                -0.0000
    Dipole Moment (Debye)
         X       4.1361      Y       0.4596      Z       3.2332
       Tot       5.2700
    Quadrupole Moments (Debye-Ang)
        XX     -85.2297     XY       2.4561     YY     -80.6776
        XZ       0.5139     YZ      -1.1742     ZZ     -85.5209

 Total job time:  704.55s(wall), 702.14s(cpu)
        *  Thank you very much for using Q-Chem.  Have a nice day.  *
