 Q-Chem 5.4, Q-Chem, Inc., Pleasanton, CA (2021)
 Q-Chem 5.4.0 for Intel X86 EM64T Linux

User input:
--------------------------------------------------------------
$molecule
0 1
C	-0.763475	-3.866725	0.133897
C	0.603206	-3.703963	-0.106669
C	1.050446	-2.357056	-0.185154
H	1.283024	-4.561092	-0.226709
C	0.000000	-1.440664	0.000000
S	-1.521018	-2.286957	0.268206
C	2.483610	-1.978743	-0.437628
H	3.118875	-2.878678	-0.549717
H	2.903464	-1.376015	0.394664
H	2.593726	-1.375728	-1.363110
C	0.000000	0.000000	0.000000
C	0.223548	0.834165	1.099446
C	0.581748	2.170912	0.776721
H	0.128089	0.477934	2.136088
C	0.638880	2.384045	-0.612546
S	0.243934	0.910282	-1.486809
C	0.863301	3.221592	1.814609
H	0.753137	2.810458	2.836676
H	0.170663	4.084559	1.726239
H	1.894637	3.622593	1.726228
H	0.884575	3.300913	-1.161575
H	-0.946698	-4.392713	1.077442
H	-1.258274	-4.392347	-0.690363
H	-0.187427	-1.440391	-1.063612
$end

$rem
JOBTYPE		SP
EXCHANGE	HF
CORRELATION	pRIMP2
BASIS		cc-pvtz
METHOD		rimp2
AUX_BASIS	rimp2-cc-pvtz
SOLVENT_METHOD	PCM
PURECART	11111
SYMMETRY	false
MEM_TOTAL	110000
SCF_CONVERGENCE = 6
THRESH=10
$end

$solvent
dielectric 4.90
$end
--------------------------------------------------------------

             Standard Nuclear Orientation (Angstroms)
    I     Atom           X                Y                Z
 ----------------------------------------------------------------
    1      C      -0.7634750000    -3.8667250000     0.1338970000
    2      C       0.6032060000    -3.7039630000    -0.1066690000
    3      C       1.0504460000    -2.3570560000    -0.1851540000
    4      H       1.2830240000    -4.5610920000    -0.2267090000
    5      C       0.0000000000    -1.4406640000     0.0000000000
    6      S      -1.5210180000    -2.2869570000     0.2682060000
    7      C       2.4836100000    -1.9787430000    -0.4376280000
    8      H       3.1188750000    -2.8786780000    -0.5497170000
    9      H       2.9034640000    -1.3760150000     0.3946640000
   10      H       2.5937260000    -1.3757280000    -1.3631100000
   11      C       0.0000000000     0.0000000000     0.0000000000
   12      C       0.2235480000     0.8341650000     1.0994460000
   13      C       0.5817480000     2.1709120000     0.7767210000
   14      H       0.1280890000     0.4779340000     2.1360880000
   15      C       0.6388800000     2.3840450000    -0.6125460000
   16      S       0.2439340000     0.9102820000    -1.4868090000
   17      C       0.8633010000     3.2215920000     1.8146090000
   18      H       0.7531370000     2.8104580000     2.8366760000
   19      H       0.1706630000     4.0845590000     1.7262390000
   20      H       1.8946370000     3.6225930000     1.7262280000
   21      H       0.8845750000     3.3009130000    -1.1615750000
   22      H      -0.9466980000    -4.3927130000     1.0774420000
   23      H      -1.2582740000    -4.3923470000    -0.6903630000
   24      H      -0.1874270000    -1.4403910000    -1.0636120000
 ----------------------------------------------------------------

   10   -1180.7549996507      5.11e-07  Convergence criterion met
 Total energy in the final basis set =    -1180.7549996507
        RIMP2         total energy =     -1182.7608440944 a.u.

                    Orbital Energies (a.u.)
 --------------------------------------------------------------

 Alpha MOs
 -- Occupied --
-91.9869 -91.9403 -11.2770 -11.2671 -11.2625 -11.2547 -11.2514 -11.2400
-11.2399 -11.2307 -11.2290 -11.2186  -8.9865  -8.9449  -6.6674  -6.6669
 -6.6663  -6.6263  -6.6253  -6.6240  -1.1981  -1.1538  -1.0587  -1.0250
 -1.0037  -0.9629  -0.9128  -0.9006  -0.8116  -0.7646  -0.7393  -0.7047
 -0.6534  -0.6335  -0.6111  -0.5877  -0.5756  -0.5741  -0.5700  -0.5535
 -0.5425  -0.5290  -0.5153  -0.5046  -0.4914  -0.4790  -0.4639  -0.4468
 -0.3550  -0.3424  -0.3129  -0.2810

          Ground-State Mulliken Net Atomic Charges

     Atom                 Charge (a.u.)
  ----------------------------------------
      1 C                    -0.077338
      2 C                    -0.331586
      3 C                    -0.013647
      4 H                     0.175864
      5 C                     0.086297
      6 S                    -0.178540
      7 C                    -0.266048
      8 H                     0.113659
      9 H                     0.107168
     10 H                     0.102285
     11 C                    -0.102216
     12 C                    -0.232682
     13 C                     0.026627
     14 H                     0.185880
     15 C                    -0.242844
     16 S                     0.015471
     17 C                    -0.271902
     18 H                     0.103138
     19 H                     0.108298
     20 H                     0.107395
     21 H                     0.198887
     22 H                     0.112206
     23 H                     0.110065
     24 H                     0.163562
  ----------------------------------------
  Sum of atomic charges =     0.000000

                    Cartesian Multipole Moments
 -----------------------------------------------------------------
    Charge (ESU x 10^10)
                -0.0000
    Dipole Moment (Debye)
         X       2.8099      Y       0.8083      Z       0.3113
       Tot       2.9404
    Quadrupole Moments (Debye-Ang)
        XX     -90.9976     XY      -0.5946     YY     -74.4533
        XZ       0.5112     YZ       2.8955     ZZ     -85.9570

 Total job time:  651.19s(wall), 648.24s(cpu)
        *  Thank you very much for using Q-Chem.  Have a nice day.  *
