 Q-Chem 5.4, Q-Chem, Inc., Pleasanton, CA (2021)
 Q-Chem 5.4.0 for Intel X86 EM64T Linux

User input:
--------------------------------------------------------------
$molecule
0 1
C	-0.498788	-3.866725	0.593324
C	0.393517	-3.703963	-0.469446
C	0.685674	-2.357056	-0.817050
H	0.837128	-4.561092	-0.998381
C	-0.000000	-1.440664	-0.000000
S	-0.992768	-2.286957	1.183149
C	1.621254	-1.978743	-1.931676
H	2.035845	-2.878678	-2.425882
H	2.477868	-1.376015	-1.563980
H	1.110719	-1.375728	-2.711417
C	0.000000	0.000000	0.000000
C	0.365003	0.782674	1.099446
C	0.949885	2.036912	0.776721
H	0.209135	0.448431	2.136088
C	1.043159	2.236886	-0.612546
S	0.398297	0.854094	-1.486809
C	1.409609	3.022738	1.814609
H	1.229726	2.636980	2.836676
H	0.877346	3.992870	1.726239
H	2.494910	3.238558	1.726228
H	1.444334	3.097160	-1.161575
H	-0.032646	-4.392713	1.433894
H	-1.407651	-4.392347	0.279954
H	-0.827254	-1.440391	-0.694299
$end

$rem
JOBTYPE		SP
EXCHANGE	HF
CORRELATION	pRIMP2
BASIS		cc-pvtz
METHOD		rimp2
AUX_BASIS	rimp2-cc-pvtz
SOLVENT_METHOD	PCM
PURECART	11111
SYMMETRY	false
MEM_TOTAL	110000
SCF_CONVERGENCE = 6
THRESH=10
$end

$solvent
dielectric 4.90
$end
--------------------------------------------------------------

             Standard Nuclear Orientation (Angstroms)
    I     Atom           X                Y                Z
 ----------------------------------------------------------------
    1      C      -0.4987880000    -3.8667250000     0.5933240000
    2      C       0.3935170000    -3.7039630000    -0.4694460000
    3      C       0.6856740000    -2.3570560000    -0.8170500000
    4      H       0.8371280000    -4.5610920000    -0.9983810000
    5      C       0.0000000000    -1.4406640000     0.0000000000
    6      S      -0.9927680000    -2.2869570000     1.1831490000
    7      C       1.6212540000    -1.9787430000    -1.9316760000
    8      H       2.0358450000    -2.8786780000    -2.4258820000
    9      H       2.4778680000    -1.3760150000    -1.5639800000
   10      H       1.1107190000    -1.3757280000    -2.7114170000
   11      C       0.0000000000     0.0000000000     0.0000000000
   12      C       0.3650030000     0.7826740000     1.0994460000
   13      C       0.9498850000     2.0369120000     0.7767210000
   14      H       0.2091350000     0.4484310000     2.1360880000
   15      C       1.0431590000     2.2368860000    -0.6125460000
   16      S       0.3982970000     0.8540940000    -1.4868090000
   17      C       1.4096090000     3.0227380000     1.8146090000
   18      H       1.2297260000     2.6369800000     2.8366760000
   19      H       0.8773460000     3.9928700000     1.7262390000
   20      H       2.4949100000     3.2385580000     1.7262280000
   21      H       1.4443340000     3.0971600000    -1.1615750000
   22      H      -0.0326460000    -4.3927130000     1.4338940000
   23      H      -1.4076510000    -4.3923470000     0.2799540000
   24      H      -0.8272540000    -1.4403910000    -0.6942990000
 ----------------------------------------------------------------

   10   -1180.7405546954      5.58e-07  Convergence criterion met
 Total energy in the final basis set =    -1180.7405546954
        RIMP2         total energy =     -1182.7512159395 a.u.

                    Orbital Energies (a.u.)
 --------------------------------------------------------------

 Alpha MOs
 -- Occupied --
-91.9825 -91.9428 -11.2786 -11.2642 -11.2642 -11.2560 -11.2501 -11.2415
-11.2374 -11.2297 -11.2281 -11.2194  -8.9827  -8.9473  -6.6636  -6.6630
 -6.6624  -6.6287  -6.6277  -6.6264  -1.1999  -1.1530  -1.0594  -1.0250
 -1.0057  -0.9597  -0.9133  -0.9018  -0.8111  -0.7701  -0.7268  -0.7062
 -0.6534  -0.6391  -0.6107  -0.5924  -0.5787  -0.5731  -0.5693  -0.5521
 -0.5417  -0.5305  -0.5152  -0.5105  -0.4895  -0.4743  -0.4589  -0.4448
 -0.3556  -0.3413  -0.3214  -0.2688

          Ground-State Mulliken Net Atomic Charges

     Atom                 Charge (a.u.)
  ----------------------------------------
      1 C                    -0.070676
      2 C                    -0.328767
      3 C                    -0.035638
      4 H                     0.177575
      5 C                     0.082033
      6 S                    -0.182716
      7 C                    -0.281837
      8 H                     0.113679
      9 H                     0.117730
     10 H                     0.103757
     11 C                    -0.090288
     12 C                    -0.224306
     13 C                     0.018496
     14 H                     0.187239
     15 C                    -0.235275
     16 S                     0.003050
     17 C                    -0.271168
     18 H                     0.102901
     19 H                     0.107843
     20 H                     0.106977
     21 H                     0.198028
     22 H                     0.111352
     23 H                     0.111031
     24 H                     0.178982
  ----------------------------------------
  Sum of atomic charges =     0.000000

                    Cartesian Multipole Moments
 -----------------------------------------------------------------
    Charge (ESU x 10^10)
                -0.0000
    Dipole Moment (Debye)
         X       1.8126      Y       0.3495      Z      -1.0223
       Tot       2.1101
    Quadrupole Moments (Debye-Ang)
        XX     -89.5149     XY       3.0034     YY     -75.7687
        XZ       0.0827     YZ       4.4515     ZZ     -85.9863

 Total job time:  663.10s(wall), 659.10s(cpu)
        *  Thank you very much for using Q-Chem.  Have a nice day.  *
