 Q-Chem 5.4, Q-Chem, Inc., Pleasanton, CA (2021)
 Q-Chem 5.4.0 for Intel X86 EM64T Linux

User input:
--------------------------------------------------------------
$molecule
0 1
C	0.593324	-3.866725	0.498788
C	-0.469446	-3.703963	-0.393517
C	-0.817050	-2.357056	-0.685674
H	-0.998381	-4.561092	-0.837128
C	0.000000	-1.440664	0.000000
S	1.183149	-2.286957	0.992768
C	-1.931676	-1.978743	-1.621254
H	-2.425882	-2.878678	-2.035845
H	-1.563980	-1.376015	-2.477868
H	-2.711417	-1.375728	-1.110719
C	0.000000	0.000000	0.000000
C	0.747916	0.431772	1.099446
C	1.946425	1.123709	0.776721
H	0.428523	0.247378	2.136088
C	2.137531	1.234018	-0.612546
S	0.816154	0.471179	-1.486809
C	2.888455	1.667564	1.814609
H	2.519842	1.454746	2.836676
H	3.008896	2.767543	1.726239
H	3.901271	1.221850	1.726228
H	2.959587	1.708609	-1.161575
H	1.433894	-4.392713	0.032646
H	0.279954	-4.392347	1.407651
H	-0.694299	-1.440391	0.827254
$end

$rem
JOBTYPE		SP
EXCHANGE	HF
CORRELATION	pRIMP2
BASIS		cc-pvtz
METHOD		rimp2
AUX_BASIS	rimp2-cc-pvtz
SOLVENT_METHOD	PCM
PURECART	11111
SYMMETRY	false
MEM_TOTAL	110000
SCF_CONVERGENCE = 6
THRESH=10
$end

$solvent
dielectric 4.90
$end
--------------------------------------------------------------

             Standard Nuclear Orientation (Angstroms)
    I     Atom           X                Y                Z
 ----------------------------------------------------------------
    1      C       0.5933240000    -3.8667250000     0.4987880000
    2      C      -0.4694460000    -3.7039630000    -0.3935170000
    3      C      -0.8170500000    -2.3570560000    -0.6856740000
    4      H      -0.9983810000    -4.5610920000    -0.8371280000
    5      C       0.0000000000    -1.4406640000     0.0000000000
    6      S       1.1831490000    -2.2869570000     0.9927680000
    7      C      -1.9316760000    -1.9787430000    -1.6212540000
    8      H      -2.4258820000    -2.8786780000    -2.0358450000
    9      H      -1.5639800000    -1.3760150000    -2.4778680000
   10      H      -2.7114170000    -1.3757280000    -1.1107190000
   11      C       0.0000000000     0.0000000000     0.0000000000
   12      C       0.7479160000     0.4317720000     1.0994460000
   13      C       1.9464250000     1.1237090000     0.7767210000
   14      H       0.4285230000     0.2473780000     2.1360880000
   15      C       2.1375310000     1.2340180000    -0.6125460000
   16      S       0.8161540000     0.4711790000    -1.4868090000
   17      C       2.8884550000     1.6675640000     1.8146090000
   18      H       2.5198420000     1.4547460000     2.8366760000
   19      H       3.0088960000     2.7675430000     1.7262390000
   20      H       3.9012710000     1.2218500000     1.7262280000
   21      H       2.9595870000     1.7086090000    -1.1615750000
   22      H       1.4338940000    -4.3927130000     0.0326460000
   23      H       0.2799540000    -4.3923470000     1.4076510000
   24      H      -0.6942990000    -1.4403910000     0.8272540000
 ----------------------------------------------------------------

   10   -1180.6882852828      8.60e-07  Convergence criterion met
 Total energy in the final basis set =    -1180.6882852828
        RIMP2         total energy =     -1182.7111390849 a.u.

                    Orbital Energies (a.u.)
 --------------------------------------------------------------

 Alpha MOs
 -- Occupied --
-91.9768 -91.9351 -11.2887 -11.2627 -11.2556 -11.2546 -11.2503 -11.2484
-11.2355 -11.2307 -11.2294 -11.2130  -8.9780  -8.9402  -6.6588  -6.6578
 -6.6576  -6.6215  -6.6205  -6.6192  -1.2052  -1.1539  -1.0584  -1.0244
 -1.0095  -0.9556  -0.9122  -0.9021  -0.8108  -0.7674  -0.7369  -0.6945
 -0.6553  -0.6374  -0.6151  -0.5907  -0.5797  -0.5780  -0.5652  -0.5499
 -0.5392  -0.5362  -0.5139  -0.5062  -0.4894  -0.4628  -0.4501  -0.4408
 -0.3516  -0.3403  -0.3231  -0.2632

          Ground-State Mulliken Net Atomic Charges

     Atom                 Charge (a.u.)
  ----------------------------------------
      1 C                    -0.089390
      2 C                    -0.323828
      3 C                    -0.068633
      4 H                     0.173806
      5 C                     0.093415
      6 S                    -0.195359
      7 C                    -0.278988
      8 H                     0.114099
      9 H                     0.106210
     10 H                     0.103634
     11 C                    -0.161175
     12 C                    -0.146740
     13 C                    -0.006520
     14 H                     0.197900
     15 C                    -0.167766
     16 S                     0.014230
     17 C                    -0.267568
     18 H                     0.104282
     19 H                     0.110607
     20 H                     0.107939
     21 H                     0.201035
     22 H                     0.108469
     23 H                     0.105119
     24 H                     0.165224
  ----------------------------------------
  Sum of atomic charges =     0.000000

                    Cartesian Multipole Moments
 -----------------------------------------------------------------
    Charge (ESU x 10^10)
                -0.0000
    Dipole Moment (Debye)
         X       0.4281      Y       0.8668      Z       0.8853
       Tot       1.3109
    Quadrupole Moments (Debye-Ang)
        XX     -82.4436     XY       9.4622     YY     -83.5649
        XZ       0.9154     YZ       1.8313     ZZ     -85.0384

 Total job time:  691.84s(wall), 687.50s(cpu)
        *  Thank you very much for using Q-Chem.  Have a nice day.  *
