 Q-Chem 5.4, Q-Chem, Inc., Pleasanton, CA (2021)
 Q-Chem 5.4.0 for Intel X86 EM64T Linux

User input:
--------------------------------------------------------------
$molecule
0 1
C	-0.497696	-3.866725	-0.594240
C	0.393981	-3.703963	0.469057
C	0.685571	-2.357056	0.817136
H	0.837848	-4.561092	0.997777
C	-0.000000	-1.440664	-0.000000
S	-0.992782	-2.286957	-1.183137
C	1.620802	-1.978743	1.932056
H	2.035506	-2.878678	2.426166
H	1.109943	-1.376015	2.711806
H	2.477350	-1.375728	1.564678
C	0.000000	0.000000	0.000000
C	0.149995	0.850475	1.099446
C	0.390327	2.213354	0.776721
H	0.085947	0.487279	2.136088
C	0.428665	2.430655	-0.612546
S	0.163670	0.928078	-1.486809
C	0.579235	3.284574	1.814609
H	0.505323	2.865404	2.836676
H	-0.185980	4.083890	1.726239
H	1.571698	3.773937	1.726228
H	0.593515	3.365448	-1.161575
H	-1.406441	-4.392713	-0.281143
H	-0.031265	-4.392347	-1.434879
H	-0.827402	-1.440937	0.694122
$end

$rem
JOBTYPE		SP
EXCHANGE	HF
CORRELATION	pRIMP2
BASIS		cc-pvtz
METHOD		rimp2
AUX_BASIS	rimp2-cc-pvtz
SOLVENT_METHOD	PCM
PURECART	11111
SYMMETRY	false
MEM_TOTAL	110000
SCF_CONVERGENCE = 6
THRESH=10
$end

$solvent
dielectric 4.90
$end
--------------------------------------------------------------

             Standard Nuclear Orientation (Angstroms)
    I     Atom           X                Y                Z
 ----------------------------------------------------------------
    1      C      -0.4976960000    -3.8667250000    -0.5942400000
    2      C       0.3939810000    -3.7039630000     0.4690570000
    3      C       0.6855710000    -2.3570560000     0.8171360000
    4      H       0.8378480000    -4.5610920000     0.9977770000
    5      C       0.0000000000    -1.4406640000     0.0000000000
    6      S      -0.9927820000    -2.2869570000    -1.1831370000
    7      C       1.6208020000    -1.9787430000     1.9320560000
    8      H       2.0355060000    -2.8786780000     2.4261660000
    9      H       1.1099430000    -1.3760150000     2.7118060000
   10      H       2.4773500000    -1.3757280000     1.5646780000
   11      C       0.0000000000     0.0000000000     0.0000000000
   12      C       0.1499950000     0.8504750000     1.0994460000
   13      C       0.3903270000     2.2133540000     0.7767210000
   14      H       0.0859470000     0.4872790000     2.1360880000
   15      C       0.4286650000     2.4306550000    -0.6125460000
   16      S       0.1636700000     0.9280780000    -1.4868090000
   17      C       0.5792350000     3.2845740000     1.8146090000
   18      H       0.5053230000     2.8654040000     2.8366760000
   19      H      -0.1859800000     4.0838900000     1.7262390000
   20      H       1.5716980000     3.7739370000     1.7262280000
   21      H       0.5935150000     3.3654480000    -1.1615750000
   22      H      -1.4064410000    -4.3927130000    -0.2811430000
   23      H      -0.0312650000    -4.3923470000    -1.4348790000
   24      H      -0.8274020000    -1.4409370000     0.6941220000
 ----------------------------------------------------------------

   10   -1180.7580105116      5.04e-07  Convergence criterion met
 Total energy in the final basis set =    -1180.7580105116
        RIMP2         total energy =     -1182.7645707632 a.u.

                    Orbital Energies (a.u.)
 --------------------------------------------------------------

 Alpha MOs
 -- Occupied --
-91.9821 -91.9442 -11.2857 -11.2651 -11.2586 -11.2585 -11.2508 -11.2428
-11.2363 -11.2326 -11.2289 -11.2215  -8.9818  -8.9488  -6.6627  -6.6622
 -6.6616  -6.6302  -6.6292  -6.6279  -1.2004  -1.1529  -1.0593  -1.0293
 -1.0029  -0.9615  -0.9137  -0.9004  -0.8173  -0.7618  -0.7290  -0.7066
 -0.6594  -0.6455  -0.6107  -0.5915  -0.5852  -0.5702  -0.5603  -0.5540
 -0.5424  -0.5329  -0.5189  -0.5056  -0.4844  -0.4823  -0.4649  -0.4462
 -0.3572  -0.3428  -0.3213  -0.2698

          Ground-State Mulliken Net Atomic Charges

     Atom                 Charge (a.u.)
  ----------------------------------------
      1 C                    -0.075322
      2 C                    -0.320596
      3 C                    -0.055357
      4 H                     0.177754
      5 C                     0.122081
      6 S                    -0.176525
      7 C                    -0.279630
      8 H                     0.118775
      9 H                     0.097314
     10 H                     0.114703
     11 C                    -0.065266
     12 C                    -0.279207
     13 C                     0.032573
     14 H                     0.190443
     15 C                    -0.260459
     16 S                     0.011937
     17 C                    -0.273184
     18 H                     0.101155
     19 H                     0.108783
     20 H                     0.108500
     21 H                     0.195762
     22 H                     0.112326
     23 H                     0.111756
     24 H                     0.181684
  ----------------------------------------
  Sum of atomic charges =     0.000000

                    Cartesian Multipole Moments
 -----------------------------------------------------------------
    Charge (ESU x 10^10)
                -0.0000
    Dipole Moment (Debye)
         X       1.1913      Y      -0.0013      Z       3.8264
       Tot       4.0075
    Quadrupole Moments (Debye-Ang)
        XX     -91.0668     XY       0.7180     YY     -73.6175
        XZ       0.3876     YZ      -2.4502     ZZ     -86.2645

 Total job time:  657.81s(wall), 653.14s(cpu)
        *  Thank you very much for using Q-Chem.  Have a nice day.  *
