 Q-Chem 5.4, Q-Chem, Inc., Pleasanton, CA (2021)
 Q-Chem 5.4.0 for Intel X86 EM64T Linux

User input:
--------------------------------------------------------------
$molecule
0 1
C	0.763228	-3.866725	0.135301
C	-0.603311	-3.703963	-0.106073
C	-1.050423	-2.357056	-0.185286
H	-1.283188	-4.561092	-0.225783
C	0.000000	-1.440664	0.000000
S	1.521021	-2.286957	0.268187
C	-2.483507	-1.978743	-0.438209
H	-3.118798	-2.878678	-0.550153
H	-2.593381	-1.376015	-1.363906
H	-2.903516	-1.375728	0.393798
C	0.000000	0.000000	0.000000
C	0.747916	0.431772	1.099446
C	1.946425	1.123709	0.776721
H	0.428523	0.247378	2.136088
C	2.137531	1.234018	-0.612546
S	0.816154	0.471179	-1.486809
C	2.888455	1.667564	1.814609
H	2.519842	1.454746	2.836676
H	3.008896	2.767543	1.726239
H	3.901271	1.221850	1.726228
H	2.959587	1.708609	-1.161575
H	1.258111	-4.392713	-0.688674
H	0.946272	-4.392347	1.079084
H	0.187654	-1.440937	-1.063572
$end

$rem
JOBTYPE		SP
EXCHANGE	HF
CORRELATION	pRIMP2
BASIS		cc-pvtz
METHOD		rimp2
AUX_BASIS	rimp2-cc-pvtz
SOLVENT_METHOD	PCM
PURECART	11111
SYMMETRY	false
MEM_TOTAL	110000
SCF_CONVERGENCE = 6
THRESH=10
$end

$solvent
dielectric 4.90
$end
--------------------------------------------------------------

             Standard Nuclear Orientation (Angstroms)
    I     Atom           X                Y                Z
 ----------------------------------------------------------------
    1      C       0.7632280000    -3.8667250000     0.1353010000
    2      C      -0.6033110000    -3.7039630000    -0.1060730000
    3      C      -1.0504230000    -2.3570560000    -0.1852860000
    4      H      -1.2831880000    -4.5610920000    -0.2257830000
    5      C       0.0000000000    -1.4406640000     0.0000000000
    6      S       1.5210210000    -2.2869570000     0.2681870000
    7      C      -2.4835070000    -1.9787430000    -0.4382090000
    8      H      -3.1187980000    -2.8786780000    -0.5501530000
    9      H      -2.5933810000    -1.3760150000    -1.3639060000
   10      H      -2.9035160000    -1.3757280000     0.3937980000
   11      C       0.0000000000     0.0000000000     0.0000000000
   12      C       0.7479160000     0.4317720000     1.0994460000
   13      C       1.9464250000     1.1237090000     0.7767210000
   14      H       0.4285230000     0.2473780000     2.1360880000
   15      C       2.1375310000     1.2340180000    -0.6125460000
   16      S       0.8161540000     0.4711790000    -1.4868090000
   17      C       2.8884550000     1.6675640000     1.8146090000
   18      H       2.5198420000     1.4547460000     2.8366760000
   19      H       3.0088960000     2.7675430000     1.7262390000
   20      H       3.9012710000     1.2218500000     1.7262280000
   21      H       2.9595870000     1.7086090000    -1.1615750000
   22      H       1.2581110000    -4.3927130000    -0.6886740000
   23      H       0.9462720000    -4.3923470000     1.0790840000
   24      H       0.1876540000    -1.4409370000    -1.0635720000
 ----------------------------------------------------------------

   10   -1180.6799320315      8.23e-07  Convergence criterion met
 Total energy in the final basis set =    -1180.6799320315
        RIMP2         total energy =     -1182.7012698658 a.u.

                    Orbital Energies (a.u.)
 --------------------------------------------------------------

 Alpha MOs
 -- Occupied --
-91.9794 -91.9334 -11.2898 -11.2625 -11.2535 -11.2518 -11.2490 -11.2455
-11.2354 -11.2300 -11.2281 -11.2084  -8.9808  -8.9385  -6.6616  -6.6606
 -6.6604  -6.6199  -6.6189  -6.6176  -1.2074  -1.1526  -1.0597  -1.0233
 -1.0028  -0.9627  -0.9113  -0.8997  -0.8061  -0.7659  -0.7444  -0.7035
 -0.6487  -0.6270  -0.6168  -0.5870  -0.5784  -0.5764  -0.5654  -0.5505
 -0.5408  -0.5334  -0.5078  -0.5045  -0.4869  -0.4681  -0.4574  -0.4391
 -0.3597  -0.3311  -0.3165  -0.2696

          Ground-State Mulliken Net Atomic Charges

     Atom                 Charge (a.u.)
  ----------------------------------------
      1 C                    -0.086023
      2 C                    -0.339352
      3 C                    -0.062126
      4 H                     0.171954
      5 C                     0.075679
      6 S                    -0.197572
      7 C                    -0.273199
      8 H                     0.112367
      9 H                     0.100000
     10 H                     0.105104
     11 C                    -0.165366
     12 C                    -0.115113
     13 C                    -0.016076
     14 H                     0.188552
     15 C                    -0.157578
     16 S                     0.016644
     17 C                    -0.268738
     18 H                     0.103412
     19 H                     0.109514
     20 H                     0.106435
     21 H                     0.202135
     22 H                     0.107784
     23 H                     0.108983
     24 H                     0.172579
  ----------------------------------------
  Sum of atomic charges =     0.000000

                    Cartesian Multipole Moments
 -----------------------------------------------------------------
    Charge (ESU x 10^10)
                -0.0000
    Dipole Moment (Debye)
         X       0.6049      Y       1.0946      Z       0.6051
       Tot       1.3893
    Quadrupole Moments (Debye-Ang)
        XX     -82.3811     XY       8.7910     YY     -84.7912
        XZ       0.1431     YZ       2.4284     ZZ     -85.0261

 Total job time:  687.61s(wall), 685.76s(cpu)
        *  Thank you very much for using Q-Chem.  Have a nice day.  *
