 Q-Chem 5.4, Q-Chem, Inc., Pleasanton, CA (2021)
 Q-Chem 5.4.0 for Intel X86 EM64T Linux

User input:
--------------------------------------------------------------
$molecule
0 1
C	-0.763228	-3.866725	-0.135301
C	0.603311	-3.703963	0.106073
C	1.050423	-2.357056	0.185286
H	1.283188	-4.561092	0.225783
C	-0.000000	-1.440664	-0.000000
S	-1.521021	-2.286957	-0.268187
C	2.483507	-1.978743	0.438209
H	3.118798	-2.878678	0.550153
H	2.593381	-1.376015	1.363906
H	2.903516	-1.375728	-0.393798
C	0.000000	0.000000	0.000000
C	0.365003	0.782674	1.099446
C	0.949885	2.036912	0.776721
H	0.209135	0.448431	2.136088
C	1.043159	2.236886	-0.612546
S	0.398297	0.854094	-1.486809
C	1.409609	3.022738	1.814609
H	1.229726	2.636980	2.836676
H	0.877346	3.992870	1.726239
H	2.494910	3.238558	1.726228
H	1.444334	3.097160	-1.161575
H	-1.258111	-4.392713	0.688674
H	-0.946272	-4.392347	-1.079084
H	0.187654	-1.440391	-1.063572
$end

$rem
JOBTYPE		SP
EXCHANGE	HF
CORRELATION	pRIMP2
BASIS		cc-pvtz
METHOD		rimp2
AUX_BASIS	rimp2-cc-pvtz
SOLVENT_METHOD	PCM
PURECART	11111
SYMMETRY	false
MEM_TOTAL	110000
SCF_CONVERGENCE = 6
THRESH=10
$end

$solvent
dielectric 4.90
$end
--------------------------------------------------------------

             Standard Nuclear Orientation (Angstroms)
    I     Atom           X                Y                Z
 ----------------------------------------------------------------
    1      C      -0.7632280000    -3.8667250000    -0.1353010000
    2      C       0.6033110000    -3.7039630000     0.1060730000
    3      C       1.0504230000    -2.3570560000     0.1852860000
    4      H       1.2831880000    -4.5610920000     0.2257830000
    5      C       0.0000000000    -1.4406640000     0.0000000000
    6      S      -1.5210210000    -2.2869570000    -0.2681870000
    7      C       2.4835070000    -1.9787430000     0.4382090000
    8      H       3.1187980000    -2.8786780000     0.5501530000
    9      H       2.5933810000    -1.3760150000     1.3639060000
   10      H       2.9035160000    -1.3757280000    -0.3937980000
   11      C       0.0000000000     0.0000000000     0.0000000000
   12      C       0.3650030000     0.7826740000     1.0994460000
   13      C       0.9498850000     2.0369120000     0.7767210000
   14      H       0.2091350000     0.4484310000     2.1360880000
   15      C       1.0431590000     2.2368860000    -0.6125460000
   16      S       0.3982970000     0.8540940000    -1.4868090000
   17      C       1.4096090000     3.0227380000     1.8146090000
   18      H       1.2297260000     2.6369800000     2.8366760000
   19      H       0.8773460000     3.9928700000     1.7262390000
   20      H       2.4949100000     3.2385580000     1.7262280000
   21      H       1.4443340000     3.0971600000    -1.1615750000
   22      H      -1.2581110000    -4.3927130000     0.6886740000
   23      H      -0.9462720000    -4.3923470000    -1.0790840000
   24      H       0.1876540000    -1.4403910000    -1.0635720000
 ----------------------------------------------------------------

   10   -1180.7463730884      5.38e-07  Convergence criterion met
 Total energy in the final basis set =    -1180.7463730884
        RIMP2         total energy =     -1182.7542647414 a.u.

                    Orbital Energies (a.u.)
 --------------------------------------------------------------

 Alpha MOs
 -- Occupied --
-91.9852 -91.9380 -11.2741 -11.2698 -11.2620 -11.2532 -11.2515 -11.2430
-11.2392 -11.2308 -11.2295 -11.2183  -8.9852  -8.9428  -6.6661  -6.6655
 -6.6649  -6.6242  -6.6231  -6.6219  -1.1987  -1.1539  -1.0588  -1.0253
 -1.0024  -0.9643  -0.9122  -0.9006  -0.8104  -0.7618  -0.7444  -0.7048
 -0.6524  -0.6327  -0.6117  -0.5871  -0.5758  -0.5738  -0.5697  -0.5541
 -0.5431  -0.5286  -0.5175  -0.5049  -0.4905  -0.4745  -0.4642  -0.4461
 -0.3545  -0.3429  -0.3142  -0.2783

          Ground-State Mulliken Net Atomic Charges

     Atom                 Charge (a.u.)
  ----------------------------------------
      1 C                    -0.076620
      2 C                    -0.329248
      3 C                    -0.016763
      4 H                     0.175724
      5 C                     0.079876
      6 S                    -0.185441
      7 C                    -0.270618
      8 H                     0.115155
      9 H                     0.105156
     10 H                     0.106230
     11 C                    -0.073967
     12 C                    -0.262048
     13 C                     0.041379
     14 H                     0.188394
     15 C                    -0.240059
     16 S                     0.010802
     17 C                    -0.271125
     18 H                     0.103004
     19 H                     0.108663
     20 H                     0.107024
     21 H                     0.199859
     22 H                     0.111294
     23 H                     0.108598
     24 H                     0.164730
  ----------------------------------------
  Sum of atomic charges =     0.000000

                    Cartesian Multipole Moments
 -----------------------------------------------------------------
    Charge (ESU x 10^10)
                -0.0000
    Dipole Moment (Debye)
         X       3.4938      Y       0.8699      Z       1.2226
       Tot       3.8024
    Quadrupole Moments (Debye-Ang)
        XX     -90.0813     XY       0.2973     YY     -75.8930
        XZ       0.6470     YZ       1.5188     ZZ     -85.6636

 Total job time:  660.43s(wall), 657.46s(cpu)
        *  Thank you very much for using Q-Chem.  Have a nice day.  *
