 Q-Chem 5.4, Q-Chem, Inc., Pleasanton, CA (2021)
 Q-Chem 5.4.0 for Intel X86 EM64T Linux

User input:
--------------------------------------------------------------
$molecule
0 1
C	-0.498788	-3.866725	0.593324
C	0.393517	-3.703963	-0.469446
C	0.685674	-2.357056	-0.817050
H	0.837128	-4.561092	-0.998381
C	0.000000	-1.440664	0.000000
S	-0.992768	-2.286957	1.183149
C	1.621254	-1.978743	-1.931676
H	2.035845	-2.878678	-2.425882
H	2.477868	-1.376015	-1.563980
H	1.110719	-1.375728	-2.711417
C	0.000000	0.000000	0.000000
C	0.000033	0.863600	1.099446
C	0.000052	2.247508	0.776721
H	0.000026	0.494801	2.136088
C	0.000074	2.468165	-0.612546
S	0.000024	0.942399	-1.486809
C	0.000075	3.335257	1.814609
H	0.000074	2.909620	2.836676
H	-0.892314	3.989552	1.726239
H	0.892483	3.989525	1.726228
H	0.000094	3.417382	-1.161575
H	-0.032646	-4.392713	1.433894
H	-1.407651	-4.392347	0.279954
H	-0.827254	-1.440391	-0.694299
$end

$rem
JOBTYPE		SP
EXCHANGE	HF
CORRELATION	pRIMP2
BASIS		cc-pvtz
METHOD		rimp2
AUX_BASIS	rimp2-cc-pvtz
SOLVENT_METHOD	PCM
PURECART	11111
SYMMETRY	false
MEM_TOTAL	110000
SCF_CONVERGENCE = 6
THRESH=10
$end

$solvent
dielectric 4.90
$end
--------------------------------------------------------------

   10   -1180.7602615517      4.93e-07  Convergence criterion met
 Total energy in the final basis set =    -1180.7602615517
        RIMP2         total energy =     -1182.7648035518 a.u.
 Total job time:  644.50s(wall), 640.80s(cpu)
        *  Thank you very much for using Q-Chem.  Have a nice day.  *
 Q-Chem 5.4, Q-Chem, Inc., Pleasanton, CA (2021)
 Q-Chem 5.4.0 for Intel X86 EM64T Linux

User input:
--------------------------------------------------------------
$molecule
0 1
C	-0.498788	-3.866725	0.593324
C	0.393517	-3.703963	-0.469446
C	0.685674	-2.357056	-0.817050
H	0.837128	-4.561092	-0.998381
C	0.000000	-1.440664	0.000000
S	-0.992768	-2.286957	1.183149
C	1.621254	-1.978743	-1.931676
H	2.035845	-2.878678	-2.425882
H	2.477868	-1.376015	-1.563980
H	1.110719	-1.375728	-2.711417
C	0.000000	0.000000	0.000000
C	0.000033	0.863600	1.099446
C	0.000052	2.247508	0.776721
H	0.000026	0.494801	2.136088
C	0.000074	2.468165	-0.612546
S	0.000024	0.942399	-1.486809
C	0.000075	3.335257	1.814609
H	0.000074	2.909620	2.836676
H	-0.892314	3.989552	1.726239
H	0.892483	3.989525	1.726228
H	0.000094	3.417382	-1.161575
H	-0.032646	-4.392713	1.433894
H	-1.407651	-4.392347	0.279954
H	-0.827254	-1.440391	-0.694299
$end

$rem
JOBTYPE		SP
EXCHANGE	HF
CORRELATION	pRIMP2
BASIS		cc-pvtz
METHOD		rimp2
AUX_BASIS	rimp2-cc-pvtz
SOLVENT_METHOD	PCM
PURECART	11111
SYMMETRY	false
MEM_TOTAL	110000
SCF_CONVERGENCE = 6
THRESH=10
$end

$solvent
dielectric 4.90
$end
--------------------------------------------------------------

             Standard Nuclear Orientation (Angstroms)
    I     Atom           X                Y                Z
 ----------------------------------------------------------------
    1      C      -0.4987880000    -3.8667250000     0.5933240000
    2      C       0.3935170000    -3.7039630000    -0.4694460000
    3      C       0.6856740000    -2.3570560000    -0.8170500000
    4      H       0.8371280000    -4.5610920000    -0.9983810000
    5      C       0.0000000000    -1.4406640000     0.0000000000
    6      S      -0.9927680000    -2.2869570000     1.1831490000
    7      C       1.6212540000    -1.9787430000    -1.9316760000
    8      H       2.0358450000    -2.8786780000    -2.4258820000
    9      H       2.4778680000    -1.3760150000    -1.5639800000
   10      H       1.1107190000    -1.3757280000    -2.7114170000
   11      C       0.0000000000     0.0000000000     0.0000000000
   12      C       0.0000330000     0.8636000000     1.0994460000
   13      C       0.0000520000     2.2475080000     0.7767210000
   14      H       0.0000260000     0.4948010000     2.1360880000
   15      C       0.0000740000     2.4681650000    -0.6125460000
   16      S       0.0000240000     0.9423990000    -1.4868090000
   17      C       0.0000750000     3.3352570000     1.8146090000
   18      H       0.0000740000     2.9096200000     2.8366760000
   19      H      -0.8923140000     3.9895520000     1.7262390000
   20      H       0.8924830000     3.9895250000     1.7262280000
   21      H       0.0000940000     3.4173820000    -1.1615750000
   22      H      -0.0326460000    -4.3927130000     1.4338940000
   23      H      -1.4076510000    -4.3923470000     0.2799540000
   24      H      -0.8272540000    -1.4403910000    -0.6942990000
 ----------------------------------------------------------------

   10   -1180.7602615517      4.93e-07  Convergence criterion met
 Total energy in the final basis set =    -1180.7602615517
        RIMP2         total energy =     -1182.7648035518 a.u.

                    Orbital Energies (a.u.)
 --------------------------------------------------------------

 Alpha MOs
 -- Occupied --
-91.9833 -91.9448 -11.2861 -11.2646 -11.2591 -11.2590 -11.2502 -11.2427
-11.2340 -11.2322 -11.2279 -11.2219  -8.9833  -8.9493  -6.6642  -6.6637
 -6.6630  -6.6307  -6.6296  -6.6284  -1.2008  -1.1530  -1.0603  -1.0268
 -1.0056  -0.9592  -0.9152  -0.9010  -0.8140  -0.7703  -0.7263  -0.7044
 -0.6560  -0.6419  -0.6107  -0.5925  -0.5783  -0.5732  -0.5691  -0.5536
 -0.5424  -0.5330  -0.5142  -0.5074  -0.4891  -0.4846  -0.4607  -0.4469
 -0.3571  -0.3429  -0.3225  -0.2706

          Ground-State Mulliken Net Atomic Charges

     Atom                 Charge (a.u.)
  ----------------------------------------
      1 C                    -0.076207
      2 C                    -0.320516
      3 C                    -0.057405
      4 H                     0.177926
      5 C                     0.150712
      6 S                    -0.177696
      7 C                    -0.283373
      8 H                     0.116223
      9 H                     0.115352
     10 H                     0.103502
     11 C                    -0.091051
     12 C                    -0.263785
     13 C                     0.028662
     14 H                     0.185928
     15 C                    -0.256396
     16 S                     0.004439
     17 C                    -0.272993
     18 H                     0.102970
     19 H                     0.108368
     20 H                     0.108034
     21 H                     0.196923
     22 H                     0.112007
     23 H                     0.112831
     24 H                     0.175543
  ----------------------------------------
  Sum of atomic charges =     0.000000

                    Cartesian Multipole Moments
 -----------------------------------------------------------------
    Charge (ESU x 10^10)
                -0.0000
    Dipole Moment (Debye)
         X       0.9503      Y       0.0315      Z      -0.9509
       Tot       1.3448
    Quadrupole Moments (Debye-Ang)
        XX     -91.3887     XY      -1.1117     YY     -73.1263
        XZ      -0.2846     YZ       4.7454     ZZ     -86.1468

 Total job time:  653.31s(wall), 650.94s(cpu)
        *  Thank you very much for using Q-Chem.  Have a nice day.  *
