 Q-Chem 5.4, Q-Chem, Inc., Pleasanton, CA (2021)
 Q-Chem 5.4.0 for Intel X86 EM64T Linux

User input:
--------------------------------------------------------------
$molecule
0 1
C	0.728138	-3.866725	0.265779
C	-0.575726	-3.703963	-0.209225
C	-1.002290	-2.357056	-0.364875
H	-1.224486	-4.561092	-0.445176
C	0.000000	-1.440664	0.000000
S	1.451343	-2.286957	0.528236
C	-2.369683	-1.978743	-0.862808
H	-2.975883	-2.878678	-1.083368
H	-2.317142	-1.376015	-1.793522
H	-2.927787	-1.375728	-0.116375
C	0.000000	0.000000	0.000000
C	0.223548	0.834165	1.099446
C	0.581748	2.170912	0.776721
H	0.128089	0.477934	2.136088
C	0.638880	2.384045	-0.612546
S	0.243934	0.910282	-1.486809
C	0.863301	3.221592	1.814609
H	0.753137	2.810458	2.836676
H	0.170663	4.084559	1.726239
H	1.894637	3.622593	1.726228
H	0.884575	3.300913	-1.161575
H	1.358585	-4.392713	-0.459743
H	0.744515	-4.392347	1.227009
H	0.369490	-1.440937	-1.014829
$end

$rem
JOBTYPE		SP
EXCHANGE	HF
CORRELATION	pRIMP2
BASIS		cc-pvtz
METHOD		rimp2
AUX_BASIS	rimp2-cc-pvtz
SOLVENT_METHOD	PCM
PURECART	11111
SYMMETRY	false
MEM_TOTAL	110000
SCF_CONVERGENCE = 6
THRESH=10
$end

$solvent
dielectric 4.90
$end
--------------------------------------------------------------

             Standard Nuclear Orientation (Angstroms)
    I     Atom           X                Y                Z
 ----------------------------------------------------------------
    1      C       0.7281380000    -3.8667250000     0.2657790000
    2      C      -0.5757260000    -3.7039630000    -0.2092250000
    3      C      -1.0022900000    -2.3570560000    -0.3648750000
    4      H      -1.2244860000    -4.5610920000    -0.4451760000
    5      C       0.0000000000    -1.4406640000     0.0000000000
    6      S       1.4513430000    -2.2869570000     0.5282360000
    7      C      -2.3696830000    -1.9787430000    -0.8628080000
    8      H      -2.9758830000    -2.8786780000    -1.0833680000
    9      H      -2.3171420000    -1.3760150000    -1.7935220000
   10      H      -2.9277870000    -1.3757280000    -0.1163750000
   11      C       0.0000000000     0.0000000000     0.0000000000
   12      C       0.2235480000     0.8341650000     1.0994460000
   13      C       0.5817480000     2.1709120000     0.7767210000
   14      H       0.1280890000     0.4779340000     2.1360880000
   15      C       0.6388800000     2.3840450000    -0.6125460000
   16      S       0.2439340000     0.9102820000    -1.4868090000
   17      C       0.8633010000     3.2215920000     1.8146090000
   18      H       0.7531370000     2.8104580000     2.8366760000
   19      H       0.1706630000     4.0845590000     1.7262390000
   20      H       1.8946370000     3.6225930000     1.7262280000
   21      H       0.8845750000     3.3009130000    -1.1615750000
   22      H       1.3585850000    -4.3927130000    -0.4597430000
   23      H       0.7445150000    -4.3923470000     1.2270090000
   24      H       0.3694900000    -1.4409370000    -1.0148290000
 ----------------------------------------------------------------

   10   -1180.7562975631      5.06e-07  Convergence criterion met
 Total energy in the final basis set =    -1180.7562975631
        RIMP2         total energy =     -1182.7611743589 a.u.

                    Orbital Energies (a.u.)
 --------------------------------------------------------------

 Alpha MOs
 -- Occupied --
-91.9852 -91.9421 -11.2790 -11.2651 -11.2617 -11.2550 -11.2509 -11.2405
-11.2389 -11.2315 -11.2286 -11.2183  -8.9851  -8.9466  -6.6660  -6.6654
 -6.6648  -6.6280  -6.6269  -6.6257  -1.1987  -1.1535  -1.0589  -1.0259
 -1.0035  -0.9615  -0.9135  -0.9002  -0.8126  -0.7658  -0.7361  -0.7033
 -0.6540  -0.6350  -0.6108  -0.5887  -0.5767  -0.5736  -0.5686  -0.5534
 -0.5423  -0.5312  -0.5122  -0.5062  -0.4882  -0.4829  -0.4635  -0.4476
 -0.3559  -0.3417  -0.3152  -0.2784

          Ground-State Mulliken Net Atomic Charges

     Atom                 Charge (a.u.)
  ----------------------------------------
      1 C                    -0.075460
      2 C                    -0.325736
      3 C                    -0.047397
      4 H                     0.175621
      5 C                     0.112974
      6 S                    -0.174052
      7 C                    -0.267637
      8 H                     0.112695
      9 H                     0.099879
     10 H                     0.108004
     11 C                    -0.088616
     12 C                    -0.252549
     13 C                     0.035730
     14 H                     0.185808
     15 C                    -0.245719
     16 S                     0.012178
     17 C                    -0.272046
     18 H                     0.102991
     19 H                     0.107778
     20 H                     0.108383
     21 H                     0.198431
     22 H                     0.110388
     23 H                     0.110703
     24 H                     0.167649
  ----------------------------------------
  Sum of atomic charges =     0.000000

                    Cartesian Multipole Moments
 -----------------------------------------------------------------
    Charge (ESU x 10^10)
                -0.0000
    Dipole Moment (Debye)
         X      -1.5021      Y       0.6428      Z      -0.0256
       Tot       1.6341
    Quadrupole Moments (Debye-Ang)
        XX     -90.7750     XY       5.5562     YY     -74.4772
        XZ       0.1060     YZ       3.4785     ZZ     -86.0511

 Total job time:  641.15s(wall), 638.97s(cpu)
        *  Thank you very much for using Q-Chem.  Have a nice day.  *
