 Q-Chem 5.4, Q-Chem, Inc., Pleasanton, CA (2021)
 Q-Chem 5.4.0 for Intel X86 EM64T Linux

User input:
--------------------------------------------------------------
$molecule
0 1
C	-0.265779	-3.866725	0.728138
C	0.209225	-3.703963	-0.575726
C	0.364875	-2.357056	-1.002290
H	0.445176	-4.561092	-1.224486
C	-0.000000	-1.440664	-0.000000
S	-0.528236	-2.286957	1.451343
C	0.862808	-1.978743	-2.369683
H	1.083368	-2.878678	-2.975883
H	1.793522	-1.376015	-2.317142
H	0.116375	-1.375728	-2.927787
C	0.000000	0.000000	0.000000
C	0.365003	0.782674	1.099446
C	0.949885	2.036912	0.776721
H	0.209135	0.448431	2.136088
C	1.043159	2.236886	-0.612546
S	0.398297	0.854094	-1.486809
C	1.409609	3.022738	1.814609
H	1.229726	2.636980	2.836676
H	0.877346	3.992870	1.726239
H	2.494910	3.238558	1.726228
H	1.444334	3.097160	-1.161575
H	0.459743	-4.392713	1.358585
H	-1.227009	-4.392347	0.744515
H	-1.014829	-1.440391	-0.369490
$end

$rem
JOBTYPE		SP
EXCHANGE	HF
CORRELATION	pRIMP2
BASIS		cc-pvtz
METHOD		rimp2
AUX_BASIS	rimp2-cc-pvtz
SOLVENT_METHOD	PCM
PURECART	11111
SYMMETRY	false
MEM_TOTAL	110000
SCF_CONVERGENCE = 6
THRESH=10
$end

$solvent
dielectric 4.90
$end
--------------------------------------------------------------

             Standard Nuclear Orientation (Angstroms)
    I     Atom           X                Y                Z
 ----------------------------------------------------------------
    1      C      -0.2657790000    -3.8667250000     0.7281380000
    2      C       0.2092250000    -3.7039630000    -0.5757260000
    3      C       0.3648750000    -2.3570560000    -1.0022900000
    4      H       0.4451760000    -4.5610920000    -1.2244860000
    5      C       0.0000000000    -1.4406640000     0.0000000000
    6      S      -0.5282360000    -2.2869570000     1.4513430000
    7      C       0.8628080000    -1.9787430000    -2.3696830000
    8      H       1.0833680000    -2.8786780000    -2.9758830000
    9      H       1.7935220000    -1.3760150000    -2.3171420000
   10      H       0.1163750000    -1.3757280000    -2.9277870000
   11      C       0.0000000000     0.0000000000     0.0000000000
   12      C       0.3650030000     0.7826740000     1.0994460000
   13      C       0.9498850000     2.0369120000     0.7767210000
   14      H       0.2091350000     0.4484310000     2.1360880000
   15      C       1.0431590000     2.2368860000    -0.6125460000
   16      S       0.3982970000     0.8540940000    -1.4868090000
   17      C       1.4096090000     3.0227380000     1.8146090000
   18      H       1.2297260000     2.6369800000     2.8366760000
   19      H       0.8773460000     3.9928700000     1.7262390000
   20      H       2.4949100000     3.2385580000     1.7262280000
   21      H       1.4443340000     3.0971600000    -1.1615750000
   22      H       0.4597430000    -4.3927130000     1.3585850000
   23      H      -1.2270090000    -4.3923470000     0.7445150000
   24      H      -1.0148290000    -1.4403910000    -0.3694900000
 ----------------------------------------------------------------

   10   -1180.7380256746      5.38e-07  Convergence criterion met
 Total energy in the final basis set =    -1180.7380256746
        RIMP2         total energy =     -1182.7493740459 a.u.

                    Orbital Energies (a.u.)
 --------------------------------------------------------------

 Alpha MOs
 -- Occupied --
-91.9802 -91.9445 -11.2823 -11.2657 -11.2597 -11.2577 -11.2494 -11.2428
-11.2350 -11.2309 -11.2275 -11.2201  -8.9806  -8.9490  -6.6615  -6.6609
 -6.6603  -6.6304  -6.6294  -6.6282  -1.2013  -1.1524  -1.0599  -1.0269
 -1.0061  -0.9577  -0.9148  -0.9020  -0.8123  -0.7716  -0.7206  -0.7063
 -0.6546  -0.6447  -0.6105  -0.5936  -0.5813  -0.5720  -0.5681  -0.5516
 -0.5412  -0.5325  -0.5160  -0.5131  -0.4885  -0.4754  -0.4570  -0.4437
 -0.3571  -0.3403  -0.3251  -0.2638

          Ground-State Mulliken Net Atomic Charges

     Atom                 Charge (a.u.)
  ----------------------------------------
      1 C                    -0.071138
      2 C                    -0.327682
      3 C                    -0.044378
      4 H                     0.178557
      5 C                     0.105804
      6 S                    -0.188067
      7 C                    -0.295529
      8 H                     0.116770
      9 H                     0.120314
     10 H                     0.104171
     11 C                    -0.057539
     12 C                    -0.257864
     13 C                     0.030160
     14 H                     0.183982
     15 C                    -0.253805
     16 S                     0.003457
     17 C                    -0.271170
     18 H                     0.102658
     19 H                     0.108056
     20 H                     0.107217
     21 H                     0.197527
     22 H                     0.112038
     23 H                     0.112077
     24 H                     0.184385
  ----------------------------------------
  Sum of atomic charges =     0.000000

                    Cartesian Multipole Moments
 -----------------------------------------------------------------
    Charge (ESU x 10^10)
                -0.0000
    Dipole Moment (Debye)
         X       0.8081      Y      -0.0349      Z      -1.2575
       Tot       1.4951
    Quadrupole Moments (Debye-Ang)
        XX     -89.6678     XY       4.1015     YY     -75.6446
        XZ      -0.0945     YZ       4.7076     ZZ     -85.7137

 Total job time:  668.62s(wall), 663.70s(cpu)
        *  Thank you very much for using Q-Chem.  Have a nice day.  *
