 Q-Chem 5.4, Q-Chem, Inc., Pleasanton, CA (2021)
 Q-Chem 5.4.0 for Intel X86 EM64T Linux

User input:
--------------------------------------------------------------
$molecule
0 1
C	0.000713	-3.866725	-0.775127
C	0.000302	-3.703963	0.612565
C	-0.000067	-2.357056	1.066639
H	0.000470	-4.561092	1.302900
C	-0.000000	-1.440664	-0.000000
S	-0.000009	-2.286957	-1.544483
C	-0.000295	-1.978743	2.521872
H	-0.000221	-2.878678	3.166949
H	-0.892850	-1.376015	2.790821
H	0.892005	-1.375728	2.791023
C	0.000000	0.000000	0.000000
C	0.555137	0.661535	1.099446
C	1.444710	1.721658	0.776721
H	0.318072	0.379023	2.136088
C	1.586563	1.890676	-0.612546
S	0.605781	0.721904	-1.486809
C	2.143920	2.554907	1.814609
H	1.870325	2.228851	2.836676
H	1.880882	3.629742	1.726239
H	3.248098	2.482476	1.726228
H	2.196723	2.617806	-1.161575
H	-0.896681	-4.392713	-1.119411
H	0.898372	-4.392347	-1.119277
H	1.080000	-1.440391	0.000115
$end

$rem
JOBTYPE		SP
EXCHANGE	HF
CORRELATION	pRIMP2
BASIS		cc-pvtz
METHOD		rimp2
AUX_BASIS	rimp2-cc-pvtz
SOLVENT_METHOD	PCM
PURECART	11111
SYMMETRY	false
MEM_TOTAL	110000
SCF_CONVERGENCE = 6
THRESH=10
$end

$solvent
dielectric 4.90
$end
--------------------------------------------------------------

             Standard Nuclear Orientation (Angstroms)
    I     Atom           X                Y                Z
 ----------------------------------------------------------------
    1      C       0.0007130000    -3.8667250000    -0.7751270000
    2      C       0.0003020000    -3.7039630000     0.6125650000
    3      C      -0.0000670000    -2.3570560000     1.0666390000
    4      H       0.0004700000    -4.5610920000     1.3029000000
    5      C       0.0000000000    -1.4406640000     0.0000000000
    6      S      -0.0000090000    -2.2869570000    -1.5444830000
    7      C      -0.0002950000    -1.9787430000     2.5218720000
    8      H      -0.0002210000    -2.8786780000     3.1669490000
    9      H      -0.8928500000    -1.3760150000     2.7908210000
   10      H       0.8920050000    -1.3757280000     2.7910230000
   11      C       0.0000000000     0.0000000000     0.0000000000
   12      C       0.5551370000     0.6615350000     1.0994460000
   13      C       1.4447100000     1.7216580000     0.7767210000
   14      H       0.3180720000     0.3790230000     2.1360880000
   15      C       1.5865630000     1.8906760000    -0.6125460000
   16      S       0.6057810000     0.7219040000    -1.4868090000
   17      C       2.1439200000     2.5549070000     1.8146090000
   18      H       1.8703250000     2.2288510000     2.8366760000
   19      H       1.8808820000     3.6297420000     1.7262390000
   20      H       3.2480980000     2.4824760000     1.7262280000
   21      H       2.1967230000     2.6178060000    -1.1615750000
   22      H      -0.8966810000    -4.3927130000    -1.1194110000
   23      H       0.8983720000    -4.3923470000    -1.1192770000
   24      H       1.0800000000    -1.4403910000     0.0001150000
 ----------------------------------------------------------------

   10   -1180.7235708701      7.03e-07  Convergence criterion met
 Total energy in the final basis set =    -1180.7235708701
        RIMP2         total energy =     -1182.7395896000 a.u.

                    Orbital Energies (a.u.)
 --------------------------------------------------------------

 Alpha MOs
 -- Occupied --
-91.9817 -91.9410 -11.2813 -11.2637 -11.2627 -11.2603 -11.2510 -11.2419
-11.2334 -11.2324 -11.2290 -11.2223  -8.9820  -8.9460  -6.6629  -6.6622
 -6.6617  -6.6274  -6.6264  -6.6251  -1.2057  -1.1527  -1.0605  -1.0329
 -0.9987  -0.9625  -0.9151  -0.9003  -0.8145  -0.7623  -0.7295  -0.7061
 -0.6588  -0.6477  -0.6112  -0.5945  -0.5854  -0.5705  -0.5583  -0.5533
 -0.5448  -0.5368  -0.5248  -0.5041  -0.4810  -0.4797  -0.4641  -0.4379
 -0.3617  -0.3425  -0.3229  -0.2607

          Ground-State Mulliken Net Atomic Charges

     Atom                 Charge (a.u.)
  ----------------------------------------
      1 C                    -0.080549
      2 C                    -0.301768
      3 C                    -0.071026
      4 H                     0.177456
      5 C                     0.112785
      6 S                    -0.188268
      7 C                    -0.294948
      8 H                     0.119082
      9 H                     0.111579
     10 H                     0.101998
     11 C                    -0.026153
     12 C                    -0.295402
     13 C                     0.045004
     14 H                     0.188457
     15 C                    -0.266926
     16 S                     0.016543
     17 C                    -0.269998
     18 H                     0.101133
     19 H                     0.109323
     20 H                     0.107067
     21 H                     0.198252
     22 H                     0.112268
     23 H                     0.110985
     24 H                     0.183107
  ----------------------------------------
  Sum of atomic charges =     0.000000

                    Cartesian Multipole Moments
 -----------------------------------------------------------------
    Charge (ESU x 10^10)
                -0.0000
    Dipole Moment (Debye)
         X       2.0069      Y      -0.3294      Z       3.8296
       Tot       4.3361
    Quadrupole Moments (Debye-Ang)
        XX     -87.3564     XY       3.7047     YY     -77.5184
        XZ       0.3303     YZ      -2.8774     ZZ     -85.6326

 Total job time:  681.89s(wall), 679.38s(cpu)
        *  Thank you very much for using Q-Chem.  Have a nice day.  *
