 Q-Chem 5.4, Q-Chem, Inc., Pleasanton, CA (2021)
 Q-Chem 5.4.0 for Intel X86 EM64T Linux

User input:
--------------------------------------------------------------
$molecule
0 1
C	0.386946	-3.866725	0.671636
C	-0.306544	-3.703963	-0.530345
C	-0.533261	-2.357056	-0.923770
H	-0.651857	-4.561092	-1.128109
C	-0.000000	-1.440664	-0.000000
S	0.772250	-2.286957	1.337557
C	-1.260680	-1.978743	-2.184153
H	-1.583283	-2.878678	-2.742769
H	-0.622180	-1.376015	-2.863347
H	-2.168011	-1.375728	-1.971094
C	0.000000	0.000000	0.000000
C	0.075300	0.860311	1.099446
C	0.195935	2.238951	0.776721
H	0.043151	0.492916	2.136088
C	0.215188	2.458766	-0.612546
S	0.082160	0.938811	-1.486809
C	0.290762	3.322559	1.814609
H	0.253664	2.898542	2.836676
H	-0.541206	4.052140	1.726239
H	1.236797	3.896558	1.726228
H	0.297938	3.404370	-1.161575
H	1.336254	-4.392713	0.521098
H	-0.218374	-4.392347	1.418509
H	0.935365	-1.440937	-0.539900
$end

$rem
JOBTYPE		SP
EXCHANGE	HF
CORRELATION	pRIMP2
BASIS		cc-pvtz
METHOD		rimp2
AUX_BASIS	rimp2-cc-pvtz
SOLVENT_METHOD	PCM
PURECART	11111
SYMMETRY	false
MEM_TOTAL	110000
SCF_CONVERGENCE = 6
THRESH=10
$end

$solvent
dielectric 4.90
$end
--------------------------------------------------------------

             Standard Nuclear Orientation (Angstroms)
    I     Atom           X                Y                Z
 ----------------------------------------------------------------
    1      C       0.3869460000    -3.8667250000     0.6716360000
    2      C      -0.3065440000    -3.7039630000    -0.5303450000
    3      C      -0.5332610000    -2.3570560000    -0.9237700000
    4      H      -0.6518570000    -4.5610920000    -1.1281090000
    5      C       0.0000000000    -1.4406640000     0.0000000000
    6      S       0.7722500000    -2.2869570000     1.3375570000
    7      C      -1.2606800000    -1.9787430000    -2.1841530000
    8      H      -1.5832830000    -2.8786780000    -2.7427690000
    9      H      -0.6221800000    -1.3760150000    -2.8633470000
   10      H      -2.1680110000    -1.3757280000    -1.9710940000
   11      C       0.0000000000     0.0000000000     0.0000000000
   12      C       0.0753000000     0.8603110000     1.0994460000
   13      C       0.1959350000     2.2389510000     0.7767210000
   14      H       0.0431510000     0.4929160000     2.1360880000
   15      C       0.2151880000     2.4587660000    -0.6125460000
   16      S       0.0821600000     0.9388110000    -1.4868090000
   17      C       0.2907620000     3.3225590000     1.8146090000
   18      H       0.2536640000     2.8985420000     2.8366760000
   19      H      -0.5412060000     4.0521400000     1.7262390000
   20      H       1.2367970000     3.8965580000     1.7262280000
   21      H       0.2979380000     3.4043700000    -1.1615750000
   22      H       1.3362540000    -4.3927130000     0.5210980000
   23      H      -0.2183740000    -4.3923470000     1.4185090000
   24      H       0.9353650000    -1.4409370000    -0.5399000000
 ----------------------------------------------------------------

   10   -1180.7606181783      4.97e-07  Convergence criterion met
 Total energy in the final basis set =    -1180.7606181783
        RIMP2         total energy =     -1182.7651409981 a.u.

                    Orbital Energies (a.u.)
 --------------------------------------------------------------

 Alpha MOs
 -- Occupied --
-91.9821 -91.9458 -11.2883 -11.2651 -11.2608 -11.2567 -11.2500 -11.2434
-11.2329 -11.2326 -11.2277 -11.2229  -8.9822  -8.9502  -6.6632  -6.6626
 -6.6619  -6.6316  -6.6306  -6.6293  -1.2019  -1.1528  -1.0608  -1.0277
 -1.0059  -0.9583  -0.9160  -0.9012  -0.8145  -0.7714  -0.7230  -0.7043
 -0.6571  -0.6449  -0.6109  -0.5932  -0.5798  -0.5726  -0.5689  -0.5537
 -0.5426  -0.5339  -0.5147  -0.5081  -0.4880  -0.4860  -0.4600  -0.4463
 -0.3581  -0.3428  -0.3247  -0.2683

          Ground-State Mulliken Net Atomic Charges

     Atom                 Charge (a.u.)
  ----------------------------------------
      1 C                    -0.075407
      2 C                    -0.316344
      3 C                    -0.063164
      4 H                     0.178298
      5 C                     0.155660
      6 S                    -0.180259
      7 C                    -0.292069
      8 H                     0.117344
      9 H                     0.105108
     10 H                     0.117731
     11 C                    -0.057143
     12 C                    -0.298806
     13 C                     0.040935
     14 H                     0.182751
     15 C                    -0.267183
     16 S                     0.003305
     17 C                    -0.273034
     18 H                     0.102903
     19 H                     0.108083
     20 H                     0.108709
     21 H                     0.196321
     22 H                     0.112986
     23 H                     0.112063
     24 H                     0.181212
  ----------------------------------------
  Sum of atomic charges =     0.000000

                    Cartesian Multipole Moments
 -----------------------------------------------------------------
    Charge (ESU x 10^10)
                -0.0000
    Dipole Moment (Debye)
         X      -0.3786      Y      -0.2205      Z      -1.0983
       Tot       1.1825
    Quadrupole Moments (Debye-Ang)
        XX     -91.3709     XY       1.3510     YY     -72.9933
        XZ       0.4947     YZ       4.9559     ZZ     -86.0388

 Total job time:  650.41s(wall), 646.62s(cpu)
        *  Thank you very much for using Q-Chem.  Have a nice day.  *
