 Q-Chem 5.4, Q-Chem, Inc., Pleasanton, CA (2021)
 Q-Chem 5.4.0 for Intel X86 EM64T Linux

User input:
--------------------------------------------------------------
$molecule
0 1
C	0.728625	-3.866725	-0.264439
C	-0.575519	-3.703963	0.209794
C	-1.002336	-2.357056	0.364749
H	-1.224165	-4.561092	0.446060
C	-0.000000	-1.440664	-0.000000
S	1.451336	-2.286957	-0.528253
C	-2.369885	-1.978743	0.862253
H	-2.976034	-2.878678	1.082953
H	-2.927887	-1.376015	0.115513
H	-2.317620	-1.375728	1.792797
C	0.000000	0.000000	0.000000
C	0.149995	0.850475	1.099446
C	0.390327	2.213354	0.776721
H	0.085947	0.487279	2.136088
C	0.428665	2.430655	-0.612546
S	0.163670	0.928078	-1.486809
C	0.579235	3.284574	1.814609
H	0.505323	2.865404	2.836676
H	-0.185980	4.083890	1.726239
H	1.571698	3.773937	1.726228
H	0.593515	3.365448	-1.161575
H	0.745219	-4.392713	-1.225465
H	1.359038	-4.392347	0.461378
H	-0.369273	-1.440937	-1.014907
$end

$rem
JOBTYPE		SP
EXCHANGE	HF
CORRELATION	pRIMP2
BASIS		cc-pvtz
METHOD		rimp2
AUX_BASIS	rimp2-cc-pvtz
SOLVENT_METHOD	PCM
PURECART	11111
SYMMETRY	false
MEM_TOTAL	110000
SCF_CONVERGENCE = 6
THRESH=10
$end

$solvent
dielectric 4.90
$end
--------------------------------------------------------------

   10   -1180.7583181210      5.14e-07  Convergence criterion met
 Total energy in the final basis set =    -1180.7583181210
        RIMP2         total energy =     -1182.7627914851 a.u.
 Total job time:  643.64s(wall), 639.91s(cpu)
        *  Thank you very much for using Q-Chem.  Have a nice day.  *
 Q-Chem 5.4, Q-Chem, Inc., Pleasanton, CA (2021)
 Q-Chem 5.4.0 for Intel X86 EM64T Linux

User input:
--------------------------------------------------------------
$molecule
0 1
C	0.728625	-3.866725	-0.264439
C	-0.575519	-3.703963	0.209794
C	-1.002336	-2.357056	0.364749
H	-1.224165	-4.561092	0.446060
C	-0.000000	-1.440664	-0.000000
S	1.451336	-2.286957	-0.528253
C	-2.369885	-1.978743	0.862253
H	-2.976034	-2.878678	1.082953
H	-2.927887	-1.376015	0.115513
H	-2.317620	-1.375728	1.792797
C	0.000000	0.000000	0.000000
C	0.149995	0.850475	1.099446
C	0.390327	2.213354	0.776721
H	0.085947	0.487279	2.136088
C	0.428665	2.430655	-0.612546
S	0.163670	0.928078	-1.486809
C	0.579235	3.284574	1.814609
H	0.505323	2.865404	2.836676
H	-0.185980	4.083890	1.726239
H	1.571698	3.773937	1.726228
H	0.593515	3.365448	-1.161575
H	0.745219	-4.392713	-1.225465
H	1.359038	-4.392347	0.461378
H	-0.369273	-1.440937	-1.014907
$end

$rem
JOBTYPE		SP
EXCHANGE	HF
CORRELATION	pRIMP2
BASIS		cc-pvtz
METHOD		rimp2
AUX_BASIS	rimp2-cc-pvtz
SOLVENT_METHOD	PCM
PURECART	11111
SYMMETRY	false
MEM_TOTAL	110000
SCF_CONVERGENCE = 6
THRESH=10
$end

$solvent
dielectric 4.90
$end
--------------------------------------------------------------

             Standard Nuclear Orientation (Angstroms)
    I     Atom           X                Y                Z
 ----------------------------------------------------------------
    1      C       0.7286250000    -3.8667250000    -0.2644390000
    2      C      -0.5755190000    -3.7039630000     0.2097940000
    3      C      -1.0023360000    -2.3570560000     0.3647490000
    4      H      -1.2241650000    -4.5610920000     0.4460600000
    5      C       0.0000000000    -1.4406640000     0.0000000000
    6      S       1.4513360000    -2.2869570000    -0.5282530000
    7      C      -2.3698850000    -1.9787430000     0.8622530000
    8      H      -2.9760340000    -2.8786780000     1.0829530000
    9      H      -2.9278870000    -1.3760150000     0.1155130000
   10      H      -2.3176200000    -1.3757280000     1.7927970000
   11      C       0.0000000000     0.0000000000     0.0000000000
   12      C       0.1499950000     0.8504750000     1.0994460000
   13      C       0.3903270000     2.2133540000     0.7767210000
   14      H       0.0859470000     0.4872790000     2.1360880000
   15      C       0.4286650000     2.4306550000    -0.6125460000
   16      S       0.1636700000     0.9280780000    -1.4868090000
   17      C       0.5792350000     3.2845740000     1.8146090000
   18      H       0.5053230000     2.8654040000     2.8366760000
   19      H      -0.1859800000     4.0838900000     1.7262390000
   20      H       1.5716980000     3.7739370000     1.7262280000
   21      H       0.5935150000     3.3654480000    -1.1615750000
   22      H       0.7452190000    -4.3927130000    -1.2254650000
   23      H       1.3590380000    -4.3923470000     0.4613780000
   24      H      -0.3692730000    -1.4409370000    -1.0149070000
 ----------------------------------------------------------------

   10   -1180.7583181210      5.14e-07  Convergence criterion met
 Total energy in the final basis set =    -1180.7583181210
        RIMP2         total energy =     -1182.7627914851 a.u.

                    Orbital Energies (a.u.)
 --------------------------------------------------------------

 Alpha MOs
 -- Occupied --
-91.9859 -91.9412 -11.2789 -11.2651 -11.2629 -11.2551 -11.2507 -11.2408
-11.2382 -11.2317 -11.2287 -11.2190  -8.9856  -8.9460  -6.6665  -6.6660
 -6.6654  -6.6273  -6.6263  -6.6250  -1.1982  -1.1535  -1.0585  -1.0272
 -1.0017  -0.9631  -0.9126  -0.9003  -0.8138  -0.7603  -0.7430  -0.7028
 -0.6538  -0.6346  -0.6107  -0.5879  -0.5785  -0.5709  -0.5677  -0.5543
 -0.5431  -0.5303  -0.5125  -0.5060  -0.4910  -0.4813  -0.4638  -0.4491
 -0.3567  -0.3405  -0.3145  -0.2788

          Ground-State Mulliken Net Atomic Charges

     Atom                 Charge (a.u.)
  ----------------------------------------
      1 C                    -0.076124
      2 C                    -0.328067
      3 C                    -0.025997
      4 H                     0.176466
      5 C                     0.107342
      6 S                    -0.175009
      7 C                    -0.266974
      8 H                     0.113039
      9 H                     0.103474
     10 H                     0.103648
     11 C                    -0.117516
     12 C                    -0.221368
     13 C                     0.017722
     14 H                     0.187317
     15 C                    -0.241294
     16 S                     0.014604
     17 C                    -0.272714
     18 H                     0.102442
     19 H                     0.107422
     20 H                     0.108565
     21 H                     0.198335
     22 H                     0.110361
     23 H                     0.113518
     24 H                     0.160808
  ----------------------------------------
  Sum of atomic charges =     0.000000

                    Cartesian Multipole Moments
 -----------------------------------------------------------------
    Charge (ESU x 10^10)
                -0.0000
    Dipole Moment (Debye)
         X      -2.1984      Y       0.6461      Z       1.5653
       Tot       2.7750
    Quadrupole Moments (Debye-Ang)
        XX     -91.6043     XY       5.7230     YY     -73.8845
        XZ      -0.1031     YZ       0.9859     ZZ     -85.7129

 Total job time:  642.45s(wall), 639.37s(cpu)
        *  Thank you very much for using Q-Chem.  Have a nice day.  *
