 Q-Chem 5.4, Q-Chem, Inc., Pleasanton, CA (2021)
 Q-Chem 5.4.0 for Intel X86 EM64T Linux

User input:
--------------------------------------------------------------
$molecule
0 1
C	-0.763475	-3.866725	0.133897
C	0.603206	-3.703963	-0.106669
C	1.050446	-2.357056	-0.185154
H	1.283024	-4.561092	-0.226709
C	0.000000	-1.440664	0.000000
S	-1.521018	-2.286957	0.268206
C	2.483610	-1.978743	-0.437628
H	3.118875	-2.878678	-0.549717
H	2.903464	-1.376015	0.394664
H	2.593726	-1.375728	-1.363110
C	0.000000	0.000000	0.000000
C	0.661577	0.555087	1.099446
C	1.721724	1.444630	0.776721
H	0.379056	0.318032	2.136088
C	1.890772	1.586449	-0.612546
S	0.721935	0.605744	-1.486809
C	2.555004	2.143805	1.814609
H	2.228946	1.870211	2.836676
H	2.482605	3.247987	1.726239
H	3.629830	1.880735	1.726228
H	2.617927	2.196579	-1.161575
H	-0.946698	-4.392713	1.077442
H	-1.258274	-4.392347	-0.690363
H	0.187427	-1.440937	1.063612
$end

$rem
JOBTYPE		SP
EXCHANGE	HF
CORRELATION	pRIMP2
BASIS		cc-pvtz
METHOD		rimp2
AUX_BASIS	rimp2-cc-pvtz
SOLVENT_METHOD	PCM
PURECART	11111
SYMMETRY	false
MEM_TOTAL	110000
SCF_CONVERGENCE = 6
THRESH=10
$end

$solvent
dielectric 4.90
$end
--------------------------------------------------------------

             Standard Nuclear Orientation (Angstroms)
    I     Atom           X                Y                Z
 ----------------------------------------------------------------
    1      C      -0.7634750000    -3.8667250000     0.1338970000
    2      C       0.6032060000    -3.7039630000    -0.1066690000
    3      C       1.0504460000    -2.3570560000    -0.1851540000
    4      H       1.2830240000    -4.5610920000    -0.2267090000
    5      C       0.0000000000    -1.4406640000     0.0000000000
    6      S      -1.5210180000    -2.2869570000     0.2682060000
    7      C       2.4836100000    -1.9787430000    -0.4376280000
    8      H       3.1188750000    -2.8786780000    -0.5497170000
    9      H       2.9034640000    -1.3760150000     0.3946640000
   10      H       2.5937260000    -1.3757280000    -1.3631100000
   11      C       0.0000000000     0.0000000000     0.0000000000
   12      C       0.6615770000     0.5550870000     1.0994460000
   13      C       1.7217240000     1.4446300000     0.7767210000
   14      H       0.3790560000     0.3180320000     2.1360880000
   15      C       1.8907720000     1.5864490000    -0.6125460000
   16      S       0.7219350000     0.6057440000    -1.4868090000
   17      C       2.5550040000     2.1438050000     1.8146090000
   18      H       2.2289460000     1.8702110000     2.8366760000
   19      H       2.4826050000     3.2479870000     1.7262390000
   20      H       3.6298300000     1.8807350000     1.7262280000
   21      H       2.6179270000     2.1965790000    -1.1615750000
   22      H      -0.9466980000    -4.3927130000     1.0774420000
   23      H      -1.2582740000    -4.3923470000    -0.6903630000
   24      H       0.1874270000    -1.4409370000     1.0636120000
 ----------------------------------------------------------------

   10   -1180.7046960791      8.87e-07  Convergence criterion met
 Total energy in the final basis set =    -1180.7046960791
        RIMP2         total energy =     -1182.7253101387 a.u.

                    Orbital Energies (a.u.)
 --------------------------------------------------------------

 Alpha MOs
 -- Occupied --
-91.9802 -91.9315 -11.2813 -11.2618 -11.2595 -11.2573 -11.2530 -11.2490
-11.2358 -11.2316 -11.2269 -11.2153  -8.9808  -8.9366  -6.6616  -6.6609
 -6.6606  -6.6180  -6.6169  -6.6157  -1.2033  -1.1538  -1.0589  -1.0215
 -1.0095  -0.9600  -0.9096  -0.9024  -0.8079  -0.7619  -0.7436  -0.7007
 -0.6583  -0.6369  -0.6115  -0.5909  -0.5812  -0.5741  -0.5656  -0.5518
 -0.5420  -0.5256  -0.5222  -0.5029  -0.4926  -0.4633  -0.4541  -0.4404
 -0.3504  -0.3447  -0.3165  -0.2703

          Ground-State Mulliken Net Atomic Charges

     Atom                 Charge (a.u.)
  ----------------------------------------
      1 C                    -0.073201
      2 C                    -0.333063
      3 C                    -0.030510
      4 H                     0.174793
      5 C                     0.083919
      6 S                    -0.216471
      7 C                    -0.298283
      8 H                     0.121817
      9 H                     0.106761
     10 H                     0.116044
     11 C                    -0.107049
     12 C                    -0.193326
     13 C                     0.008174
     14 H                     0.185389
     15 C                    -0.186397
     16 S                     0.008325
     17 C                    -0.269011
     18 H                     0.103177
     19 H                     0.110762
     20 H                     0.105579
     21 H                     0.199698
     22 H                     0.105806
     23 H                     0.107133
     24 H                     0.169935
  ----------------------------------------
  Sum of atomic charges =     0.000000

                    Cartesian Multipole Moments
 -----------------------------------------------------------------
    Charge (ESU x 10^10)
                -0.0000
    Dipole Moment (Debye)
         X       4.8281      Y       1.0378      Z       1.9270
       Tot       5.3011
    Quadrupole Moments (Debye-Ang)
        XX     -85.3310     XY       1.7624     YY     -81.8800
        XZ       0.3048     YZ       0.1390     ZZ     -85.2883

 Total job time:  710.01s(wall), 705.35s(cpu)
        *  Thank you very much for using Q-Chem.  Have a nice day.  *
