 Q-Chem 5.4, Q-Chem, Inc., Pleasanton, CA (2021)
 Q-Chem 5.4.0 for Intel X86 EM64T Linux

User input:
--------------------------------------------------------------
$molecule
0 1
C	0.671636	-3.866725	-0.386946
C	-0.530345	-3.703963	0.306544
C	-0.923770	-2.357056	0.533261
H	-1.128109	-4.561092	0.651857
C	-0.000000	-1.440664	-0.000000
S	1.337557	-2.286957	-0.772250
C	-2.184153	-1.978743	1.260680
H	-2.742769	-2.878678	1.583283
H	-2.863347	-1.376015	0.622180
H	-1.971094	-1.375728	2.168011
C	0.000000	0.000000	0.000000
C	0.555137	0.661535	1.099446
C	1.444710	1.721658	0.776721
H	0.318072	0.379023	2.136088
C	1.586563	1.890676	-0.612546
S	0.605781	0.721904	-1.486809
C	2.143920	2.554907	1.814609
H	1.870325	2.228851	2.836676
H	1.880882	3.629742	1.726239
H	3.248098	2.482476	1.726228
H	2.196723	2.617806	-1.161575
H	0.521098	-4.392713	-1.336254
H	1.418509	-4.392347	0.218374
H	0.539900	-1.440391	0.935365
$end

$rem
JOBTYPE		SP
EXCHANGE	HF
CORRELATION	pRIMP2
BASIS		cc-pvtz
METHOD		rimp2
AUX_BASIS	rimp2-cc-pvtz
SOLVENT_METHOD	PCM
PURECART	11111
SYMMETRY	false
MEM_TOTAL	110000
SCF_CONVERGENCE = 6
THRESH=10
$end

$solvent
dielectric 4.90
$end
--------------------------------------------------------------

             Standard Nuclear Orientation (Angstroms)
    I     Atom           X                Y                Z
 ----------------------------------------------------------------
    1      C       0.6716360000    -3.8667250000    -0.3869460000
    2      C      -0.5303450000    -3.7039630000     0.3065440000
    3      C      -0.9237700000    -2.3570560000     0.5332610000
    4      H      -1.1281090000    -4.5610920000     0.6518570000
    5      C       0.0000000000    -1.4406640000     0.0000000000
    6      S       1.3375570000    -2.2869570000    -0.7722500000
    7      C      -2.1841530000    -1.9787430000     1.2606800000
    8      H      -2.7427690000    -2.8786780000     1.5832830000
    9      H      -2.8633470000    -1.3760150000     0.6221800000
   10      H      -1.9710940000    -1.3757280000     2.1680110000
   11      C       0.0000000000     0.0000000000     0.0000000000
   12      C       0.5551370000     0.6615350000     1.0994460000
   13      C       1.4447100000     1.7216580000     0.7767210000
   14      H       0.3180720000     0.3790230000     2.1360880000
   15      C       1.5865630000     1.8906760000    -0.6125460000
   16      S       0.6057810000     0.7219040000    -1.4868090000
   17      C       2.1439200000     2.5549070000     1.8146090000
   18      H       1.8703250000     2.2288510000     2.8366760000
   19      H       1.8808820000     3.6297420000     1.7262390000
   20      H       3.2480980000     2.4824760000     1.7262280000
   21      H       2.1967230000     2.6178060000    -1.1615750000
   22      H       0.5210980000    -4.3927130000    -1.3362540000
   23      H       1.4185090000    -4.3923470000     0.2183740000
   24      H       0.5399000000    -1.4403910000     0.9353650000
 ----------------------------------------------------------------

   10   -1180.7239353738      6.92e-07  Convergence criterion met
 Total energy in the final basis set =    -1180.7239353738
        RIMP2         total energy =     -1182.7377210346 a.u.

                    Orbital Energies (a.u.)
 --------------------------------------------------------------

 Alpha MOs
 -- Occupied --
-91.9816 -91.9401 -11.2720 -11.2705 -11.2581 -11.2514 -11.2500 -11.2462
-11.2378 -11.2310 -11.2296 -11.2134  -8.9816  -8.9447  -6.6625  -6.6619
 -6.6614  -6.6260  -6.6250  -6.6237  -1.2009  -1.1528  -1.0576  -1.0272
 -1.0029  -0.9601  -0.9093  -0.9016  -0.8138  -0.7566  -0.7369  -0.7003
 -0.6607  -0.6402  -0.6096  -0.5876  -0.5834  -0.5707  -0.5633  -0.5515
 -0.5401  -0.5313  -0.5108  -0.5068  -0.4906  -0.4735  -0.4618  -0.4435
 -0.3558  -0.3384  -0.3181  -0.2677

          Ground-State Mulliken Net Atomic Charges

     Atom                 Charge (a.u.)
  ----------------------------------------
      1 C                    -0.079534
      2 C                    -0.336161
      3 C                    -0.041751
      4 H                     0.172997
      5 C                     0.058048
      6 S                    -0.170145
      7 C                    -0.273901
      8 H                     0.113740
      9 H                     0.108085
     10 H                     0.099759
     11 C                    -0.082666
     12 C                    -0.205323
     13 C                     0.009996
     14 H                     0.184497
     15 C                    -0.218055
     16 S                     0.014934
     17 C                    -0.269478
     18 H                     0.101480
     19 H                     0.107891
     20 H                     0.107598
     21 H                     0.197696
     22 H                     0.108805
     23 H                     0.108658
     24 H                     0.182829
  ----------------------------------------
  Sum of atomic charges =     0.000000

                    Cartesian Multipole Moments
 -----------------------------------------------------------------
    Charge (ESU x 10^10)
                -0.0000
    Dipole Moment (Debye)
         X      -0.1901      Y       0.7140      Z       3.2902
       Tot       3.3721
    Quadrupole Moments (Debye-Ang)
        XX     -86.8029     XY       7.6877     YY     -79.7372
        XZ       0.6949     YZ      -2.0740     ZZ     -85.7574

 Total job time:  658.07s(wall), 653.91s(cpu)
        *  Thank you very much for using Q-Chem.  Have a nice day.  *
