 Q-Chem 5.4, Q-Chem, Inc., Pleasanton, CA (2021)
 Q-Chem 5.4.0 for Intel X86 EM64T Linux

User input:
--------------------------------------------------------------
$molecule
0 1
C	0.498788	-3.866725	-0.593324
C	-0.393517	-3.703963	0.469446
C	-0.685674	-2.357056	0.817050
H	-0.837128	-4.561092	0.998381
C	-0.000000	-1.440664	-0.000000
S	0.992768	-2.286957	-1.183149
C	-1.621254	-1.978743	1.931676
H	-2.035845	-2.878678	2.425882
H	-2.477868	-1.376015	1.563980
H	-1.110719	-1.375728	2.711417
C	0.000000	0.000000	0.000000
C	0.075300	0.860311	1.099446
C	0.195935	2.238951	0.776721
H	0.043151	0.492916	2.136088
C	0.215188	2.458766	-0.612546
S	0.082160	0.938811	-1.486809
C	0.290762	3.322559	1.814609
H	0.253664	2.898542	2.836676
H	-0.541206	4.052140	1.726239
H	1.236797	3.896558	1.726228
H	0.297938	3.404370	-1.161575
H	0.032646	-4.392713	-1.433894
H	1.407651	-4.392347	-0.279954
H	-0.827254	-1.440937	-0.694299
$end

$rem
JOBTYPE		SP
EXCHANGE	HF
CORRELATION	pRIMP2
BASIS		cc-pvtz
METHOD		rimp2
AUX_BASIS	rimp2-cc-pvtz
SOLVENT_METHOD	PCM
PURECART	11111
SYMMETRY	false
MEM_TOTAL	110000
SCF_CONVERGENCE = 6
THRESH=10
$end

$solvent
dielectric 4.90
$end
--------------------------------------------------------------

             Standard Nuclear Orientation (Angstroms)
    I     Atom           X                Y                Z
 ----------------------------------------------------------------
    1      C       0.4987880000    -3.8667250000    -0.5933240000
    2      C      -0.3935170000    -3.7039630000     0.4694460000
    3      C      -0.6856740000    -2.3570560000     0.8170500000
    4      H      -0.8371280000    -4.5610920000     0.9983810000
    5      C       0.0000000000    -1.4406640000     0.0000000000
    6      S       0.9927680000    -2.2869570000    -1.1831490000
    7      C      -1.6212540000    -1.9787430000     1.9316760000
    8      H      -2.0358450000    -2.8786780000     2.4258820000
    9      H      -2.4778680000    -1.3760150000     1.5639800000
   10      H      -1.1107190000    -1.3757280000     2.7114170000
   11      C       0.0000000000     0.0000000000     0.0000000000
   12      C       0.0753000000     0.8603110000     1.0994460000
   13      C       0.1959350000     2.2389510000     0.7767210000
   14      H       0.0431510000     0.4929160000     2.1360880000
   15      C       0.2151880000     2.4587660000    -0.6125460000
   16      S       0.0821600000     0.9388110000    -1.4868090000
   17      C       0.2907620000     3.3225590000     1.8146090000
   18      H       0.2536640000     2.8985420000     2.8366760000
   19      H      -0.5412060000     4.0521400000     1.7262390000
   20      H       1.2367970000     3.8965580000     1.7262280000
   21      H       0.2979380000     3.4043700000    -1.1615750000
   22      H       0.0326460000    -4.3927130000    -1.4338940000
   23      H       1.4076510000    -4.3923470000    -0.2799540000
   24      H      -0.8272540000    -1.4409370000    -0.6942990000
 ----------------------------------------------------------------

   10   -1180.7589819975      5.14e-07  Convergence criterion met
 Total energy in the final basis set =    -1180.7589819975
        RIMP2         total energy =     -1182.7634149262 a.u.

                    Orbital Energies (a.u.)
 --------------------------------------------------------------

 Alpha MOs
 -- Occupied --
-91.9842 -91.9441 -11.2853 -11.2650 -11.2593 -11.2584 -11.2503 -11.2428
-11.2339 -11.2330 -11.2284 -11.2218  -8.9839  -8.9488  -6.6649  -6.6644
 -6.6637  -6.6302  -6.6292  -6.6279  -1.2005  -1.1530  -1.0596  -1.0299
 -1.0011  -0.9630  -0.9141  -0.9000  -0.8164  -0.7614  -0.7387  -0.7029
 -0.6549  -0.6408  -0.6104  -0.5913  -0.5812  -0.5688  -0.5660  -0.5539
 -0.5452  -0.5331  -0.5177  -0.5047  -0.4891  -0.4816  -0.4656  -0.4480
 -0.3569  -0.3430  -0.3224  -0.2694

          Ground-State Mulliken Net Atomic Charges

     Atom                 Charge (a.u.)
  ----------------------------------------
      1 C                    -0.076047
      2 C                    -0.325001
      3 C                    -0.028963
      4 H                     0.177761
      5 C                     0.122670
      6 S                    -0.175157
      7 C                    -0.278938
      8 H                     0.116450
      9 H                     0.108167
     10 H                     0.103680
     11 C                    -0.106137
     12 C                    -0.238017
     13 C                     0.018201
     14 H                     0.192364
     15 C                    -0.251930
     16 S                     0.003470
     17 C                    -0.274031
     18 H                     0.101400
     19 H                     0.108062
     20 H                     0.109034
     21 H                     0.197381
     22 H                     0.110922
     23 H                     0.114816
     24 H                     0.169841
  ----------------------------------------
  Sum of atomic charges =     0.000000

                    Cartesian Multipole Moments
 -----------------------------------------------------------------
    Charge (ESU x 10^10)
                -0.0000
    Dipole Moment (Debye)
         X      -2.0397      Y       0.0607      Z       2.7219
       Tot       3.4019
    Quadrupole Moments (Debye-Ang)
        XX     -91.9337     XY       4.2188     YY     -73.0782
        XZ      -0.0102     YZ      -0.7123     ZZ     -85.6491

 Total job time:  647.82s(wall), 644.44s(cpu)
        *  Thank you very much for using Q-Chem.  Have a nice day.  *
