 Q-Chem 5.4, Q-Chem, Inc., Pleasanton, CA (2021)
 Q-Chem 5.4.0 for Intel X86 EM64T Linux

User input:
--------------------------------------------------------------
$molecule
0 1
C	0.133897	-3.866725	0.763475
C	-0.106669	-3.703963	-0.603206
C	-0.185154	-2.357056	-1.050446
H	-0.226709	-4.561092	-1.283024
C	-0.000000	-1.440664	-0.000000
S	0.268206	-2.286957	1.521018
C	-0.437628	-1.978743	-2.483610
H	-0.549717	-2.878678	-3.118875
H	0.394664	-1.376015	-2.903464
H	-1.363110	-1.375728	-2.593726
C	0.000000	0.000000	0.000000
C	0.365003	0.782674	1.099446
C	0.949885	2.036912	0.776721
H	0.209135	0.448431	2.136088
C	1.043159	2.236886	-0.612546
S	0.398297	0.854094	-1.486809
C	1.409609	3.022738	1.814609
H	1.229726	2.636980	2.836676
H	0.877346	3.992870	1.726239
H	2.494910	3.238558	1.726228
H	1.444334	3.097160	-1.161575
H	1.077442	-4.392713	0.946698
H	-0.690363	-4.392347	1.258274
H	-1.063612	-1.440391	0.187427
$end

$rem
JOBTYPE		SP
EXCHANGE	HF
CORRELATION	pRIMP2
BASIS		cc-pvtz
METHOD		rimp2
AUX_BASIS	rimp2-cc-pvtz
SOLVENT_METHOD	PCM
PURECART	11111
SYMMETRY	false
MEM_TOTAL	110000
SCF_CONVERGENCE = 6
THRESH=10
$end

$solvent
dielectric 4.90
$end
--------------------------------------------------------------

             Standard Nuclear Orientation (Angstroms)
    I     Atom           X                Y                Z
 ----------------------------------------------------------------
    1      C       0.1338970000    -3.8667250000     0.7634750000
    2      C      -0.1066690000    -3.7039630000    -0.6032060000
    3      C      -0.1851540000    -2.3570560000    -1.0504460000
    4      H      -0.2267090000    -4.5610920000    -1.2830240000
    5      C       0.0000000000    -1.4406640000     0.0000000000
    6      S       0.2682060000    -2.2869570000     1.5210180000
    7      C      -0.4376280000    -1.9787430000    -2.4836100000
    8      H      -0.5497170000    -2.8786780000    -3.1188750000
    9      H       0.3946640000    -1.3760150000    -2.9034640000
   10      H      -1.3631100000    -1.3757280000    -2.5937260000
   11      C       0.0000000000     0.0000000000     0.0000000000
   12      C       0.3650030000     0.7826740000     1.0994460000
   13      C       0.9498850000     2.0369120000     0.7767210000
   14      H       0.2091350000     0.4484310000     2.1360880000
   15      C       1.0431590000     2.2368860000    -0.6125460000
   16      S       0.3982970000     0.8540940000    -1.4868090000
   17      C       1.4096090000     3.0227380000     1.8146090000
   18      H       1.2297260000     2.6369800000     2.8366760000
   19      H       0.8773460000     3.9928700000     1.7262390000
   20      H       2.4949100000     3.2385580000     1.7262280000
   21      H       1.4443340000     3.0971600000    -1.1615750000
   22      H       1.0774420000    -4.3927130000     0.9466980000
   23      H      -0.6903630000    -4.3923470000     1.2582740000
   24      H      -1.0636120000    -1.4403910000     0.1874270000
 ----------------------------------------------------------------

   10   -1180.7414798798      5.24e-07  Convergence criterion met
 Total energy in the final basis set =    -1180.7414798798
        RIMP2         total energy =     -1182.7522484904 a.u.

                    Orbital Energies (a.u.)
 --------------------------------------------------------------

 Alpha MOs
 -- Occupied --
-91.9801 -91.9454 -11.2847 -11.2656 -11.2582 -11.2575 -11.2504 -11.2430
-11.2353 -11.2323 -11.2277 -11.2209  -8.9804  -8.9500  -6.6613  -6.6606
 -6.6600  -6.6313  -6.6303  -6.6290  -1.2019  -1.1526  -1.0601  -1.0282
 -1.0069  -0.9566  -0.9157  -0.9019  -0.8143  -0.7719  -0.7187  -0.7039
 -0.6587  -0.6468  -0.6108  -0.5911  -0.5830  -0.5737  -0.5677  -0.5536
 -0.5411  -0.5345  -0.5159  -0.5120  -0.4874  -0.4777  -0.4573  -0.4447
 -0.3583  -0.3410  -0.3263  -0.2622

          Ground-State Mulliken Net Atomic Charges

     Atom                 Charge (a.u.)
  ----------------------------------------
      1 C                    -0.074271
      2 C                    -0.326531
      3 C                    -0.042675
      4 H                     0.178484
      5 C                     0.123074
      6 S                    -0.185673
      7 C                    -0.308551
      8 H                     0.121076
      9 H                     0.113371
     10 H                     0.114321
     11 C                    -0.019873
     12 C                    -0.324137
     13 C                     0.059745
     14 H                     0.179744
     15 C                    -0.273022
     16 S                     0.012870
     17 C                    -0.270043
     18 H                     0.102773
     19 H                     0.108185
     20 H                     0.108557
     21 H                     0.195228
     22 H                     0.112654
     23 H                     0.111504
     24 H                     0.183189
  ----------------------------------------
  Sum of atomic charges =     0.000000

                    Cartesian Multipole Moments
 -----------------------------------------------------------------
    Charge (ESU x 10^10)
                -0.0000
    Dipole Moment (Debye)
         X      -0.6288      Y      -0.2111      Z      -0.8090
       Tot       1.0462
    Quadrupole Moments (Debye-Ang)
        XX     -90.0665     XY       5.9173     YY     -75.2641
        XZ       0.2827     YZ       4.2972     ZZ     -85.3819

 Total job time:  656.46s(wall), 652.30s(cpu)
        *  Thank you very much for using Q-Chem.  Have a nice day.  *
