 Q-Chem 5.4, Q-Chem, Inc., Pleasanton, CA (2021)
 Q-Chem 5.4.0 for Intel X86 EM64T Linux

User input:
--------------------------------------------------------------
$molecule
0 1
C	0.670924	-3.866725	0.388181
C	-0.530648	-3.703963	-0.306020
C	-0.923703	-2.357056	-0.533378
H	-1.128579	-4.561092	-0.651043
C	-0.000000	-1.440664	-0.000000
S	1.337567	-2.286957	0.772234
C	-2.183857	-1.978743	-1.261192
H	-2.742548	-2.878678	-1.583666
H	-1.970497	-1.376015	-2.168641
H	-2.863099	-1.375728	-0.623012
C	0.000000	0.000000	0.000000
C	0.075300	0.860311	1.099446
C	0.195935	2.238951	0.776721
H	0.043151	0.492916	2.136088
C	0.215188	2.458766	-0.612546
S	0.082160	0.938811	-1.486809
C	0.290762	3.322559	1.814609
H	0.253664	2.898542	2.836676
H	-0.541206	4.052140	1.726239
H	1.236797	3.896558	1.726228
H	0.297938	3.404370	-1.161575
H	1.417779	-4.392713	-0.216843
H	0.520136	-4.392347	1.337652
H	-0.540100	-1.440391	0.935250
$end

$rem
JOBTYPE		SP
EXCHANGE	HF
CORRELATION	pRIMP2
BASIS		cc-pvtz
METHOD		rimp2
AUX_BASIS	rimp2-cc-pvtz
SOLVENT_METHOD	PCM
PURECART	11111
SYMMETRY	false
MEM_TOTAL	110000
SCF_CONVERGENCE = 6
THRESH=10
$end

$solvent
dielectric 4.90
$end
--------------------------------------------------------------

             Standard Nuclear Orientation (Angstroms)
    I     Atom           X                Y                Z
 ----------------------------------------------------------------
    1      C       0.6709240000    -3.8667250000     0.3881810000
    2      C      -0.5306480000    -3.7039630000    -0.3060200000
    3      C      -0.9237030000    -2.3570560000    -0.5333780000
    4      H      -1.1285790000    -4.5610920000    -0.6510430000
    5      C       0.0000000000    -1.4406640000     0.0000000000
    6      S       1.3375670000    -2.2869570000     0.7722340000
    7      C      -2.1838570000    -1.9787430000    -1.2611920000
    8      H      -2.7425480000    -2.8786780000    -1.5836660000
    9      H      -1.9704970000    -1.3760150000    -2.1686410000
   10      H      -2.8630990000    -1.3757280000    -0.6230120000
   11      C       0.0000000000     0.0000000000     0.0000000000
   12      C       0.0753000000     0.8603110000     1.0994460000
   13      C       0.1959350000     2.2389510000     0.7767210000
   14      H       0.0431510000     0.4929160000     2.1360880000
   15      C       0.2151880000     2.4587660000    -0.6125460000
   16      S       0.0821600000     0.9388110000    -1.4868090000
   17      C       0.2907620000     3.3225590000     1.8146090000
   18      H       0.2536640000     2.8985420000     2.8366760000
   19      H      -0.5412060000     4.0521400000     1.7262390000
   20      H       1.2367970000     3.8965580000     1.7262280000
   21      H       0.2979380000     3.4043700000    -1.1615750000
   22      H       1.4177790000    -4.3927130000    -0.2168430000
   23      H       0.5201360000    -4.3923470000     1.3376520000
   24      H      -0.5401000000    -1.4403910000     0.9352500000
 ----------------------------------------------------------------

   10   -1180.7628881309      5.00e-07  Convergence criterion met
 Total energy in the final basis set =    -1180.7628881309
        RIMP2         total energy =     -1182.7677974282 a.u.

                    Orbital Energies (a.u.)
 --------------------------------------------------------------

 Alpha MOs
 -- Occupied --
-91.9811 -91.9424 -11.2837 -11.2634 -11.2618 -11.2565 -11.2509 -11.2414
-11.2406 -11.2319 -11.2289 -11.2204  -8.9810  -8.9471  -6.6620  -6.6614
 -6.6608  -6.6284  -6.6274  -6.6261  -1.1989  -1.1533  -1.0586  -1.0261
 -1.0070  -0.9582  -0.9132  -0.9010  -0.8151  -0.7659  -0.7306  -0.7003
 -0.6616  -0.6422  -0.6106  -0.5878  -0.5802  -0.5728  -0.5672  -0.5515
 -0.5418  -0.5323  -0.5139  -0.5063  -0.4912  -0.4823  -0.4589  -0.4494
 -0.3559  -0.3427  -0.3166  -0.2751

          Ground-State Mulliken Net Atomic Charges

     Atom                 Charge (a.u.)
  ----------------------------------------
      1 C                    -0.078885
      2 C                    -0.324644
      3 C                    -0.031386
      4 H                     0.177176
      5 C                     0.104563
      6 S                    -0.175453
      7 C                    -0.269546
      8 H                     0.113923
      9 H                     0.106213
     10 H                     0.104803
     11 C                    -0.075974
     12 C                    -0.260179
     13 C                     0.025773
     14 H                     0.184152
     15 C                    -0.245432
     16 S                     0.005703
     17 C                    -0.271855
     18 H                     0.102413
     19 H                     0.107770
     20 H                     0.108806
     21 H                     0.196283
     22 H                     0.113309
     23 H                     0.110825
     24 H                     0.171640
  ----------------------------------------
  Sum of atomic charges =     0.000000

                    Cartesian Multipole Moments
 -----------------------------------------------------------------
    Charge (ESU x 10^10)
                -0.0000
    Dipole Moment (Debye)
         X      -2.3540      Y       0.3299      Z       0.9955
       Tot       2.5771
    Quadrupole Moments (Debye-Ang)
        XX     -91.8516     XY       4.8017     YY     -73.6522
        XZ       0.3733     YZ       1.7487     ZZ     -85.7376

 Total job time:  650.82s(wall), 646.81s(cpu)
        *  Thank you very much for using Q-Chem.  Have a nice day.  *
