 Q-Chem 5.4, Q-Chem, Inc., Pleasanton, CA (2021)
 Q-Chem 5.4.0 for Intel X86 EM64T Linux

User input:
--------------------------------------------------------------
$molecule
0 1
C	-0.593324	-3.866725	-0.498788
C	0.469446	-3.703963	0.393517
C	0.817050	-2.357056	0.685674
H	0.998381	-4.561092	0.837128
C	0.000000	-1.440664	0.000000
S	-1.183149	-2.286957	-0.992768
C	1.931676	-1.978743	1.621254
H	2.425882	-2.878678	2.035845
H	1.563980	-1.376015	2.477868
H	2.711417	-1.375728	1.110719
C	0.000000	0.000000	0.000000
C	0.223548	0.834165	1.099446
C	0.581748	2.170912	0.776721
H	0.128089	0.477934	2.136088
C	0.638880	2.384045	-0.612546
S	0.243934	0.910282	-1.486809
C	0.863301	3.221592	1.814609
H	0.753137	2.810458	2.836676
H	0.170663	4.084559	1.726239
H	1.894637	3.622593	1.726228
H	0.884575	3.300913	-1.161575
H	-1.433894	-4.392713	-0.032646
H	-0.279954	-4.392347	-1.407651
H	-0.694299	-1.440937	0.827254
$end

$rem
JOBTYPE		SP
EXCHANGE	HF
CORRELATION	pRIMP2
BASIS		cc-pvtz
METHOD		rimp2
AUX_BASIS	rimp2-cc-pvtz
SOLVENT_METHOD	PCM
PURECART	11111
SYMMETRY	false
MEM_TOTAL	110000
SCF_CONVERGENCE = 6
THRESH=10
$end

$solvent
dielectric 4.90
$end
--------------------------------------------------------------

             Standard Nuclear Orientation (Angstroms)
    I     Atom           X                Y                Z
 ----------------------------------------------------------------
    1      C      -0.5933240000    -3.8667250000    -0.4987880000
    2      C       0.4694460000    -3.7039630000     0.3935170000
    3      C       0.8170500000    -2.3570560000     0.6856740000
    4      H       0.9983810000    -4.5610920000     0.8371280000
    5      C       0.0000000000    -1.4406640000     0.0000000000
    6      S      -1.1831490000    -2.2869570000    -0.9927680000
    7      C       1.9316760000    -1.9787430000     1.6212540000
    8      H       2.4258820000    -2.8786780000     2.0358450000
    9      H       1.5639800000    -1.3760150000     2.4778680000
   10      H       2.7114170000    -1.3757280000     1.1107190000
   11      C       0.0000000000     0.0000000000     0.0000000000
   12      C       0.2235480000     0.8341650000     1.0994460000
   13      C       0.5817480000     2.1709120000     0.7767210000
   14      H       0.1280890000     0.4779340000     2.1360880000
   15      C       0.6388800000     2.3840450000    -0.6125460000
   16      S       0.2439340000     0.9102820000    -1.4868090000
   17      C       0.8633010000     3.2215920000     1.8146090000
   18      H       0.7531370000     2.8104580000     2.8366760000
   19      H       0.1706630000     4.0845590000     1.7262390000
   20      H       1.8946370000     3.6225930000     1.7262280000
   21      H       0.8845750000     3.3009130000    -1.1615750000
   22      H      -1.4338940000    -4.3927130000    -0.0326460000
   23      H      -0.2799540000    -4.3923470000    -1.4076510000
   24      H      -0.6942990000    -1.4409370000     0.8272540000
 ----------------------------------------------------------------

   10   -1180.7573783158      5.14e-07  Convergence criterion met
 Total energy in the final basis set =    -1180.7573783158
        RIMP2         total energy =     -1182.7644016339 a.u.

                    Orbital Energies (a.u.)
 --------------------------------------------------------------

 Alpha MOs
 -- Occupied --
-91.9809 -91.9427 -11.2826 -11.2643 -11.2622 -11.2571 -11.2511 -11.2418
-11.2403 -11.2320 -11.2293 -11.2205  -8.9808  -8.9473  -6.6618  -6.6612
 -6.6606  -6.6287  -6.6277  -6.6264  -1.1995  -1.1534  -1.0588  -1.0280
 -1.0035  -0.9616  -0.9127  -0.9008  -0.8162  -0.7611  -0.7314  -0.7062
 -0.6591  -0.6438  -0.6108  -0.5908  -0.5841  -0.5709  -0.5612  -0.5538
 -0.5419  -0.5316  -0.5180  -0.5067  -0.4855  -0.4799  -0.4629  -0.4468
 -0.3560  -0.3423  -0.3194  -0.2732

          Ground-State Mulliken Net Atomic Charges

     Atom                 Charge (a.u.)
  ----------------------------------------
      1 C                    -0.074836
      2 C                    -0.322813
      3 C                    -0.045554
      4 H                     0.177346
      5 C                     0.100022
      6 S                    -0.175825
      7 C                    -0.272369
      8 H                     0.117738
      9 H                     0.096918
     10 H                     0.113365
     11 C                    -0.062538
     12 C                    -0.278075
     13 C                     0.031295
     14 H                     0.191149
     15 C                    -0.248410
     16 S                     0.008866
     17 C                    -0.272378
     18 H                     0.101458
     19 H                     0.108828
     20 H                     0.108361
     21 H                     0.196448
     22 H                     0.111363
     23 H                     0.111164
     24 H                     0.178477
  ----------------------------------------
  Sum of atomic charges =     0.000000

                    Cartesian Multipole Moments
 -----------------------------------------------------------------
    Charge (ESU x 10^10)
                -0.0000
    Dipole Moment (Debye)
         X       1.7926      Y       0.2609      Z       3.6837
       Tot       4.1050
    Quadrupole Moments (Debye-Ang)
        XX     -90.6842     XY       0.9453     YY     -74.1435
        XZ       0.3444     YZ      -2.2556     ZZ     -86.3446

 Total job time:  655.39s(wall), 649.67s(cpu)
        *  Thank you very much for using Q-Chem.  Have a nice day.  *
