 Q-Chem 5.4, Q-Chem, Inc., Pleasanton, CA (2021)
 Q-Chem 5.4.0 for Intel X86 EM64T Linux

User input:
--------------------------------------------------------------
$molecule
0 1
C	-0.728138	-3.866725	-0.265779
C	0.575726	-3.703963	0.209225
C	1.002290	-2.357056	0.364875
H	1.224486	-4.561092	0.445176
C	-0.000000	-1.440664	-0.000000
S	-1.451343	-2.286957	-0.528236
C	2.369683	-1.978743	0.862808
H	2.975883	-2.878678	1.083368
H	2.317142	-1.376015	1.793522
H	2.927787	-1.375728	0.116375
C	0.000000	0.000000	0.000000
C	0.075300	0.860311	1.099446
C	0.195935	2.238951	0.776721
H	0.043151	0.492916	2.136088
C	0.215188	2.458766	-0.612546
S	0.082160	0.938811	-1.486809
C	0.290762	3.322559	1.814609
H	0.253664	2.898542	2.836676
H	-0.541206	4.052140	1.726239
H	1.236797	3.896558	1.726228
H	0.297938	3.404370	-1.161575
H	-1.358585	-4.392713	0.459743
H	-0.744515	-4.392347	-1.227009
H	-0.369490	-1.440937	1.014829
$end

$rem
JOBTYPE		SP
EXCHANGE	HF
CORRELATION	pRIMP2
BASIS		cc-pvtz
METHOD		rimp2
AUX_BASIS	rimp2-cc-pvtz
SOLVENT_METHOD	PCM
PURECART	11111
SYMMETRY	false
MEM_TOTAL	110000
SCF_CONVERGENCE = 6
THRESH=10
$end

$solvent
dielectric 4.90
$end
--------------------------------------------------------------

             Standard Nuclear Orientation (Angstroms)
    I     Atom           X                Y                Z
 ----------------------------------------------------------------
    1      C      -0.7281380000    -3.8667250000    -0.2657790000
    2      C       0.5757260000    -3.7039630000     0.2092250000
    3      C       1.0022900000    -2.3570560000     0.3648750000
    4      H       1.2244860000    -4.5610920000     0.4451760000
    5      C       0.0000000000    -1.4406640000     0.0000000000
    6      S      -1.4513430000    -2.2869570000    -0.5282360000
    7      C       2.3696830000    -1.9787430000     0.8628080000
    8      H       2.9758830000    -2.8786780000     1.0833680000
    9      H       2.3171420000    -1.3760150000     1.7935220000
   10      H       2.9277870000    -1.3757280000     0.1163750000
   11      C       0.0000000000     0.0000000000     0.0000000000
   12      C       0.0753000000     0.8603110000     1.0994460000
   13      C       0.1959350000     2.2389510000     0.7767210000
   14      H       0.0431510000     0.4929160000     2.1360880000
   15      C       0.2151880000     2.4587660000    -0.6125460000
   16      S       0.0821600000     0.9388110000    -1.4868090000
   17      C       0.2907620000     3.3225590000     1.8146090000
   18      H       0.2536640000     2.8985420000     2.8366760000
   19      H      -0.5412060000     4.0521400000     1.7262390000
   20      H       1.2367970000     3.8965580000     1.7262280000
   21      H       0.2979380000     3.4043700000    -1.1615750000
   22      H      -1.3585850000    -4.3927130000     0.4597430000
   23      H      -0.7445150000    -4.3923470000    -1.2270090000
   24      H      -0.3694900000    -1.4409370000     1.0148290000
 ----------------------------------------------------------------

   10   -1180.7637463820      5.04e-07  Convergence criterion met
 Total energy in the final basis set =    -1180.7637463820
        RIMP2         total energy =     -1182.7684992595 a.u.

                    Orbital Energies (a.u.)
 --------------------------------------------------------------

 Alpha MOs
 -- Occupied --
-91.9806 -91.9418 -11.2822 -11.2640 -11.2633 -11.2562 -11.2509 -11.2429
-11.2411 -11.2318 -11.2294 -11.2197  -8.9805  -8.9465  -6.6614  -6.6609
 -6.6603  -6.6279  -6.6268  -6.6256  -1.1984  -1.1536  -1.0583  -1.0267
 -1.0049  -0.9609  -0.9120  -0.9010  -0.8159  -0.7605  -0.7346  -0.7039
 -0.6608  -0.6419  -0.6106  -0.5898  -0.5814  -0.5711  -0.5644  -0.5517
 -0.5419  -0.5300  -0.5151  -0.5063  -0.4902  -0.4813  -0.4610  -0.4479
 -0.3559  -0.3415  -0.3146  -0.2798

          Ground-State Mulliken Net Atomic Charges

     Atom                 Charge (a.u.)
  ----------------------------------------
      1 C                    -0.077683
      2 C                    -0.328644
      3 C                    -0.022815
      4 H                     0.176582
      5 C                     0.086088
      6 S                    -0.174612
      7 C                    -0.267051
      8 H                     0.114824
      9 H                     0.099398
     10 H                     0.109814
     11 C                    -0.081201
     12 C                    -0.244930
     13 C                     0.017812
     14 H                     0.184242
     15 C                    -0.238656
     16 S                     0.005896
     17 C                    -0.272059
     18 H                     0.101804
     19 H                     0.108785
     20 H                     0.108098
     21 H                     0.196836
     22 H                     0.111811
     23 H                     0.112077
     24 H                     0.173583
  ----------------------------------------
  Sum of atomic charges =     0.000000

                    Cartesian Multipole Moments
 -----------------------------------------------------------------
    Charge (ESU x 10^10)
                -0.0000
    Dipole Moment (Debye)
         X       2.1733      Y       0.4855      Z       3.0745
       Tot       3.7962
    Quadrupole Moments (Debye-Ang)
        XX     -91.4341     XY      -1.8981     YY     -73.6233
        XZ      -0.1007     YZ      -1.4040     ZZ     -86.2830

 Total job time:  650.64s(wall), 646.67s(cpu)
        *  Thank you very much for using Q-Chem.  Have a nice day.  *
