 Q-Chem 5.4, Q-Chem, Inc., Pleasanton, CA (2021)
 Q-Chem 5.4.0 for Intel X86 EM64T Linux

User input:
--------------------------------------------------------------
$molecule
0 1
C	0.336297	-3.852073	0.775127
C	0.322520	-3.689895	-0.612565
C	0.205498	-2.348081	-1.066639
H	0.397057	-4.543777	-1.302900
C	0.125562	-1.435182	0.000000
S	0.199331	-2.278254	1.544483
C	0.172753	-1.971188	-2.521872
H	0.251114	-2.867704	-3.166949
H	1.009380	-1.292962	-2.790821
H	-0.768708	-1.448236	-2.791023
C	0.000000	0.000000	0.000000
C	0.295399	0.811508	1.099446
C	0.768742	2.111949	0.776721
H	0.169256	0.464952	2.136088
C	0.844232	2.319291	-0.612546
S	0.322342	0.885558	-1.486809
C	1.140796	3.134091	1.814609
H	0.995218	2.734123	2.836676
H	0.526006	4.054142	1.726239
H	2.203157	3.443680	1.726228
H	1.168902	3.211257	-1.161575
H	1.276119	-4.297846	1.119411
H	-0.512135	-4.453931	1.119277
H	1.201476	-1.341326	0.000115
$end

$rem
JOBTYPE		SP
EXCHANGE	HF
CORRELATION	pRIMP2
BASIS		cc-pvtz
METHOD		rimp2
AUX_BASIS	rimp2-cc-pvtz
SOLVENT_METHOD	PCM
PURECART	11111
SYMMETRY	false
MEM_TOTAL	110000
SCF_CONVERGENCE = 6
THRESH=10
$end

$solvent
dielectric 4.90
$end
--------------------------------------------------------------

             Standard Nuclear Orientation (Angstroms)
    I     Atom           X                Y                Z
 ----------------------------------------------------------------
    1      C       0.3362970000    -3.8520730000     0.7751270000
    2      C       0.3225200000    -3.6898950000    -0.6125650000
    3      C       0.2054980000    -2.3480810000    -1.0666390000
    4      H       0.3970570000    -4.5437770000    -1.3029000000
    5      C       0.1255620000    -1.4351820000     0.0000000000
    6      S       0.1993310000    -2.2782540000     1.5444830000
    7      C       0.1727530000    -1.9711880000    -2.5218720000
    8      H       0.2511140000    -2.8677040000    -3.1669490000
    9      H       1.0093800000    -1.2929620000    -2.7908210000
   10      H      -0.7687080000    -1.4482360000    -2.7910230000
   11      C       0.0000000000     0.0000000000     0.0000000000
   12      C       0.2953990000     0.8115080000     1.0994460000
   13      C       0.7687420000     2.1119490000     0.7767210000
   14      H       0.1692560000     0.4649520000     2.1360880000
   15      C       0.8442320000     2.3192910000    -0.6125460000
   16      S       0.3223420000     0.8855580000    -1.4868090000
   17      C       1.1407960000     3.1340910000     1.8146090000
   18      H       0.9952180000     2.7341230000     2.8366760000
   19      H       0.5260060000     4.0541420000     1.7262390000
   20      H       2.2031570000     3.4436800000     1.7262280000
   21      H       1.1689020000     3.2112570000    -1.1615750000
   22      H       1.2761190000    -4.2978460000     1.1194110000
   23      H      -0.5121350000    -4.4539310000     1.1192770000
   24      H       1.2014760000    -1.3413260000     0.0001150000
 ----------------------------------------------------------------

   10   -1180.7473861315      4.86e-07  Convergence criterion met
 Total energy in the final basis set =    -1180.7473861315
        RIMP2         total energy =     -1182.7564476050 a.u.

                    Orbital Energies (a.u.)
 --------------------------------------------------------------

 Alpha MOs
 -- Occupied --
-91.9799 -91.9457 -11.2884 -11.2646 -11.2624 -11.2556 -11.2503 -11.2437
-11.2318 -11.2314 -11.2277 -11.2225  -8.9803  -8.9503  -6.6612  -6.6606
 -6.6600  -6.6317  -6.6307  -6.6294  -1.2041  -1.1524  -1.0613  -1.0286
 -1.0065  -0.9558  -0.9160  -0.9021  -0.8129  -0.7729  -0.7175  -0.7034
 -0.6617  -0.6485  -0.6116  -0.5905  -0.5829  -0.5717  -0.5688  -0.5538
 -0.5424  -0.5344  -0.5165  -0.5115  -0.4896  -0.4795  -0.4570  -0.4436
 -0.3586  -0.3417  -0.3273  -0.2638

          Ground-State Mulliken Net Atomic Charges

     Atom                 Charge (a.u.)
  ----------------------------------------
      1 C                    -0.074754
      2 C                    -0.314498
      3 C                    -0.055952
      4 H                     0.178482
      5 C                     0.115222
      6 S                    -0.191851
      7 C                    -0.307887
      8 H                     0.119701
      9 H                     0.110818
     10 H                     0.116965
     11 C                     0.014883
     12 C                    -0.334414
     13 C                     0.055970
     14 H                     0.176877
     15 C                    -0.282508
     16 S                     0.007858
     17 C                    -0.270085
     18 H                     0.102866
     19 H                     0.108622
     20 H                     0.108101
     21 H                     0.196368
     22 H                     0.111810
     23 H                     0.113088
     24 H                     0.194317
  ----------------------------------------
  Sum of atomic charges =     0.000000

                    Cartesian Multipole Moments
 -----------------------------------------------------------------
    Charge (ESU x 10^10)
                -0.0000
    Dipole Moment (Debye)
         X       1.5311      Y      -0.3475      Z      -1.0815
       Tot       1.9065
    Quadrupole Moments (Debye-Ang)
        XX     -90.2228     XY       1.0064     YY     -74.7287
        XZ       0.3530     YZ       4.5738     ZZ     -85.5366

 Total job time:  700.36s(wall), 659.57s(cpu)
        *  Thank you very much for using Q-Chem.  Have a nice day.  *
