 Q-Chem 5.4, Q-Chem, Inc., Pleasanton, CA (2021)
 Q-Chem 5.4.0 for Intel X86 EM64T Linux

User input:
--------------------------------------------------------------
$molecule
0 1
C	-0.671636	-3.866725	0.386946
C	0.530345	-3.703963	-0.306544
C	0.923770	-2.357056	-0.533261
H	1.128109	-4.561092	-0.651857
C	-0.000000	-1.440664	-0.000000
S	-1.337557	-2.286957	0.772250
C	2.184153	-1.978743	-1.260680
H	2.742769	-2.878678	-1.583283
H	2.863347	-1.376015	-0.622180
H	1.971094	-1.375728	-2.168011
C	0.000000	0.000000	0.000000
C	0.365003	0.782674	1.099446
C	0.949885	2.036912	0.776721
H	0.209135	0.448431	2.136088
C	1.043159	2.236886	-0.612546
S	0.398297	0.854094	-1.486809
C	1.409609	3.022738	1.814609
H	1.229726	2.636980	2.836676
H	0.877346	3.992870	1.726239
H	2.494910	3.238558	1.726228
H	1.444334	3.097160	-1.161575
H	-0.521098	-4.392713	1.336254
H	-1.418509	-4.392347	-0.218374
H	-0.539900	-1.440391	-0.935365
$end

$rem
JOBTYPE		SP
EXCHANGE	HF
CORRELATION	pRIMP2
BASIS		cc-pvtz
METHOD		rimp2
AUX_BASIS	rimp2-cc-pvtz
SOLVENT_METHOD	PCM
PURECART	11111
SYMMETRY	false
MEM_TOTAL	110000
SCF_CONVERGENCE = 6
THRESH=10
$end

$solvent
dielectric 4.90
$end
--------------------------------------------------------------

             Standard Nuclear Orientation (Angstroms)
    I     Atom           X                Y                Z
 ----------------------------------------------------------------
    1      C      -0.6716360000    -3.8667250000     0.3869460000
    2      C       0.5303450000    -3.7039630000    -0.3065440000
    3      C       0.9237700000    -2.3570560000    -0.5332610000
    4      H       1.1281090000    -4.5610920000    -0.6518570000
    5      C       0.0000000000    -1.4406640000     0.0000000000
    6      S      -1.3375570000    -2.2869570000     0.7722500000
    7      C       2.1841530000    -1.9787430000    -1.2606800000
    8      H       2.7427690000    -2.8786780000    -1.5832830000
    9      H       2.8633470000    -1.3760150000    -0.6221800000
   10      H       1.9710940000    -1.3757280000    -2.1680110000
   11      C       0.0000000000     0.0000000000     0.0000000000
   12      C       0.3650030000     0.7826740000     1.0994460000
   13      C       0.9498850000     2.0369120000     0.7767210000
   14      H       0.2091350000     0.4484310000     2.1360880000
   15      C       1.0431590000     2.2368860000    -0.6125460000
   16      S       0.3982970000     0.8540940000    -1.4868090000
   17      C       1.4096090000     3.0227380000     1.8146090000
   18      H       1.2297260000     2.6369800000     2.8366760000
   19      H       0.8773460000     3.9928700000     1.7262390000
   20      H       2.4949100000     3.2385580000     1.7262280000
   21      H       1.4443340000     3.0971600000    -1.1615750000
   22      H      -0.5210980000    -4.3927130000     1.3362540000
   23      H      -1.4185090000    -4.3923470000    -0.2183740000
   24      H      -0.5399000000    -1.4403910000    -0.9353650000
 ----------------------------------------------------------------

   10   -1180.7446260055      5.63e-07  Convergence criterion met
 Total energy in the final basis set =    -1180.7446260055
        RIMP2         total energy =     -1182.7539778109 a.u.

                    Orbital Energies (a.u.)
 --------------------------------------------------------------

 Alpha MOs
 -- Occupied --
-91.9852 -91.9407 -11.2752 -11.2683 -11.2626 -11.2545 -11.2513 -11.2403
-11.2401 -11.2292 -11.2289 -11.2183  -8.9851  -8.9452  -6.6660  -6.6655
 -6.6649  -6.6266  -6.6256  -6.6244  -1.1987  -1.1537  -1.0589  -1.0239
 -1.0050  -0.9619  -0.9124  -0.9012  -0.8104  -0.7676  -0.7338  -0.7059
 -0.6528  -0.6345  -0.6111  -0.5895  -0.5761  -0.5745  -0.5703  -0.5528
 -0.5422  -0.5290  -0.5161  -0.5061  -0.4903  -0.4749  -0.4619  -0.4454
 -0.3542  -0.3427  -0.3170  -0.2751

          Ground-State Mulliken Net Atomic Charges

     Atom                 Charge (a.u.)
  ----------------------------------------
      1 C                    -0.072867
      2 C                    -0.330485
      3 C                    -0.024359
      4 H                     0.176317
      5 C                     0.071924
      6 S                    -0.180950
      7 C                    -0.273842
      8 H                     0.113814
      9 H                     0.112310
     10 H                     0.104975
     11 C                    -0.099300
     12 C                    -0.220346
     13 C                     0.021554
     14 H                     0.187267
     15 C                    -0.231719
     16 S                     0.009962
     17 C                    -0.270811
     18 H                     0.103235
     19 H                     0.107913
     20 H                     0.106986
     21 H                     0.198693
     22 H                     0.110889
     23 H                     0.109465
     24 H                     0.169372
  ----------------------------------------
  Sum of atomic charges =     0.000000

                    Cartesian Multipole Moments
 -----------------------------------------------------------------
    Charge (ESU x 10^10)
                -0.0000
    Dipole Moment (Debye)
         X       2.6540      Y       0.7334      Z      -0.4529
       Tot       2.7905
    Quadrupole Moments (Debye-Ang)
        XX     -89.6062     XY       1.9180     YY     -75.8637
        XZ       0.4029     YZ       3.8397     ZZ     -86.0249

 Total job time:  667.00s(wall), 662.55s(cpu)
        *  Thank you very much for using Q-Chem.  Have a nice day.  *
