 Q-Chem 5.4, Q-Chem, Inc., Pleasanton, CA (2021)
 Q-Chem 5.4.0 for Intel X86 EM64T Linux

User input:
--------------------------------------------------------------
$molecule
0 1
C	0.133897	-3.866725	0.763475
C	-0.106669	-3.703963	-0.603206
C	-0.185154	-2.357056	-1.050446
H	-0.226709	-4.561092	-1.283024
C	0.000000	-1.440664	0.000000
S	0.268206	-2.286957	1.521018
C	-0.437628	-1.978743	-2.483610
H	-0.549717	-2.878678	-3.118875
H	0.394664	-1.376015	-2.903464
H	-1.363110	-1.375728	-2.593726
C	0.000000	0.000000	0.000000
C	0.223548	0.834165	1.099446
C	0.581748	2.170912	0.776721
H	0.128089	0.477934	2.136088
C	0.638880	2.384045	-0.612546
S	0.243934	0.910282	-1.486809
C	0.863301	3.221592	1.814609
H	0.753137	2.810458	2.836676
H	0.170663	4.084559	1.726239
H	1.894637	3.622593	1.726228
H	0.884575	3.300913	-1.161575
H	1.077442	-4.392713	0.946698
H	-0.690363	-4.392347	1.258274
H	1.063612	-1.440937	-0.187427
$end

$rem
JOBTYPE		SP
EXCHANGE	HF
CORRELATION	pRIMP2
BASIS		cc-pvtz
METHOD		rimp2
AUX_BASIS	rimp2-cc-pvtz
SOLVENT_METHOD	PCM
PURECART	11111
SYMMETRY	false
MEM_TOTAL	110000
SCF_CONVERGENCE = 6
THRESH=10
$end

$solvent
dielectric 4.90
$end
--------------------------------------------------------------

             Standard Nuclear Orientation (Angstroms)
    I     Atom           X                Y                Z
 ----------------------------------------------------------------
    1      C       0.1338970000    -3.8667250000     0.7634750000
    2      C      -0.1066690000    -3.7039630000    -0.6032060000
    3      C      -0.1851540000    -2.3570560000    -1.0504460000
    4      H      -0.2267090000    -4.5610920000    -1.2830240000
    5      C       0.0000000000    -1.4406640000     0.0000000000
    6      S       0.2682060000    -2.2869570000     1.5210180000
    7      C      -0.4376280000    -1.9787430000    -2.4836100000
    8      H      -0.5497170000    -2.8786780000    -3.1188750000
    9      H       0.3946640000    -1.3760150000    -2.9034640000
   10      H      -1.3631100000    -1.3757280000    -2.5937260000
   11      C       0.0000000000     0.0000000000     0.0000000000
   12      C       0.2235480000     0.8341650000     1.0994460000
   13      C       0.5817480000     2.1709120000     0.7767210000
   14      H       0.1280890000     0.4779340000     2.1360880000
   15      C       0.6388800000     2.3840450000    -0.6125460000
   16      S       0.2439340000     0.9102820000    -1.4868090000
   17      C       0.8633010000     3.2215920000     1.8146090000
   18      H       0.7531370000     2.8104580000     2.8366760000
   19      H       0.1706630000     4.0845590000     1.7262390000
   20      H       1.8946370000     3.6225930000     1.7262280000
   21      H       0.8845750000     3.3009130000    -1.1615750000
   22      H       1.0774420000    -4.3927130000     0.9466980000
   23      H      -0.6903630000    -4.3923470000     1.2582740000
   24      H       1.0636120000    -1.4409370000    -0.1874270000
 ----------------------------------------------------------------

   10   -1180.7571987606      5.00e-07  Convergence criterion met
 Total energy in the final basis set =    -1180.7571987606
        RIMP2         total energy =     -1182.7631276648 a.u.

                    Orbital Energies (a.u.)
 --------------------------------------------------------------

 Alpha MOs
 -- Occupied --
-91.9807 -91.9467 -11.2903 -11.2654 -11.2630 -11.2541 -11.2500 -11.2442
-11.2329 -11.2308 -11.2275 -11.2236  -8.9809  -8.9512  -6.6619  -6.6613
 -6.6606  -6.6326  -6.6315  -6.6303  -1.2036  -1.1525  -1.0615  -1.0288
 -1.0064  -0.9566  -0.9167  -0.9017  -0.8145  -0.7728  -0.7180  -0.7042
 -0.6601  -0.6488  -0.6114  -0.5924  -0.5822  -0.5716  -0.5687  -0.5540
 -0.5427  -0.5347  -0.5160  -0.5098  -0.4886  -0.4844  -0.4584  -0.4448
 -0.3592  -0.3423  -0.3271  -0.2653

          Ground-State Mulliken Net Atomic Charges

     Atom                 Charge (a.u.)
  ----------------------------------------
      1 C                    -0.074420
      2 C                    -0.312789
      3 C                    -0.061487
      4 H                     0.178718
      5 C                     0.136863
      6 S                    -0.187771
      7 C                    -0.308111
      8 H                     0.121194
      9 H                     0.108149
     10 H                     0.119380
     11 C                     0.006995
     12 C                    -0.346007
     13 C                     0.059613
     14 H                     0.176814
     15 C                    -0.285005
     16 S                     0.005769
     17 C                    -0.271276
     18 H                     0.102745
     19 H                     0.108298
     20 H                     0.108870
     21 H                     0.195943
     22 H                     0.112452
     23 H                     0.112621
     24 H                     0.192444
  ----------------------------------------
  Sum of atomic charges =     0.000000

                    Cartesian Multipole Moments
 -----------------------------------------------------------------
    Charge (ESU x 10^10)
                -0.0000
    Dipole Moment (Debye)
         X       0.7791      Y      -0.5286      Z      -1.1619
       Tot       1.4955
    Quadrupole Moments (Debye-Ang)
        XX     -90.9945     XY       1.6264     YY     -73.5042
        XZ       0.6928     YZ       4.8941     ZZ     -85.6988

 Total job time:  652.64s(wall), 649.37s(cpu)
        *  Thank you very much for using Q-Chem.  Have a nice day.  *
