 Q-Chem 5.4, Q-Chem, Inc., Pleasanton, CA (2021)
 Q-Chem 5.4.0 for Intel X86 EM64T Linux

User input:
--------------------------------------------------------------
$molecule
0 1
C	-0.133897	-3.866725	-0.763475
C	0.106669	-3.703963	0.603206
C	0.185154	-2.357056	1.050446
H	0.226709	-4.561092	1.283024
C	-0.000000	-1.440664	-0.000000
S	-0.268206	-2.286957	-1.521018
C	0.437628	-1.978743	2.483610
H	0.549717	-2.878678	3.118875
H	-0.394664	-1.376015	2.903464
H	1.363110	-1.375728	2.593726
C	0.000000	0.000000	0.000000
C	0.555137	0.661535	1.099446
C	1.444710	1.721658	0.776721
H	0.318072	0.379023	2.136088
C	1.586563	1.890676	-0.612546
S	0.605781	0.721904	-1.486809
C	2.143920	2.554907	1.814609
H	1.870325	2.228851	2.836676
H	1.880882	3.629742	1.726239
H	3.248098	2.482476	1.726228
H	2.196723	2.617806	-1.161575
H	-1.077442	-4.392713	-0.946698
H	0.690363	-4.392347	-1.258274
H	1.063612	-1.440391	-0.187427
$end

$rem
JOBTYPE		SP
EXCHANGE	HF
CORRELATION	pRIMP2
BASIS		cc-pvtz
METHOD		rimp2
AUX_BASIS	rimp2-cc-pvtz
SOLVENT_METHOD	PCM
PURECART	11111
SYMMETRY	false
MEM_TOTAL	110000
SCF_CONVERGENCE = 6
THRESH=10
$end

$solvent
dielectric 4.90
$end
--------------------------------------------------------------

             Standard Nuclear Orientation (Angstroms)
    I     Atom           X                Y                Z
 ----------------------------------------------------------------
    1      C      -0.1338970000    -3.8667250000    -0.7634750000
    2      C       0.1066690000    -3.7039630000     0.6032060000
    3      C       0.1851540000    -2.3570560000     1.0504460000
    4      H       0.2267090000    -4.5610920000     1.2830240000
    5      C       0.0000000000    -1.4406640000     0.0000000000
    6      S      -0.2682060000    -2.2869570000    -1.5210180000
    7      C       0.4376280000    -1.9787430000     2.4836100000
    8      H       0.5497170000    -2.8786780000     3.1188750000
    9      H      -0.3946640000    -1.3760150000     2.9034640000
   10      H       1.3631100000    -1.3757280000     2.5937260000
   11      C       0.0000000000     0.0000000000     0.0000000000
   12      C       0.5551370000     0.6615350000     1.0994460000
   13      C       1.4447100000     1.7216580000     0.7767210000
   14      H       0.3180720000     0.3790230000     2.1360880000
   15      C       1.5865630000     1.8906760000    -0.6125460000
   16      S       0.6057810000     0.7219040000    -1.4868090000
   17      C       2.1439200000     2.5549070000     1.8146090000
   18      H       1.8703250000     2.2288510000     2.8366760000
   19      H       1.8808820000     3.6297420000     1.7262390000
   20      H       3.2480980000     2.4824760000     1.7262280000
   21      H       2.1967230000     2.6178060000    -1.1615750000
   22      H      -1.0774420000    -4.3927130000    -0.9466980000
   23      H       0.6903630000    -4.3923470000    -1.2582740000
   24      H       1.0636120000    -1.4403910000    -0.1874270000
 ----------------------------------------------------------------

   10   -1180.7245578906      6.63e-07  Convergence criterion met
 Total energy in the final basis set =    -1180.7245578906
        RIMP2         total energy =     -1182.7401427081 a.u.

                    Orbital Energies (a.u.)
 --------------------------------------------------------------

 Alpha MOs
 -- Occupied --
-91.9801 -91.9407 -11.2803 -11.2641 -11.2640 -11.2605 -11.2510 -11.2423
-11.2342 -11.2334 -11.2292 -11.2221  -8.9806  -8.9458  -6.6615  -6.6608
 -6.6603  -6.6272  -6.6261  -6.6249  -1.2057  -1.1529  -1.0607  -1.0329
 -0.9986  -0.9631  -0.9153  -0.9004  -0.8136  -0.7625  -0.7323  -0.7064
 -0.6565  -0.6472  -0.6113  -0.5949  -0.5841  -0.5707  -0.5596  -0.5521
 -0.5469  -0.5369  -0.5254  -0.5048  -0.4811  -0.4775  -0.4627  -0.4400
 -0.3603  -0.3422  -0.3239  -0.2621

          Ground-State Mulliken Net Atomic Charges

     Atom                 Charge (a.u.)
  ----------------------------------------
      1 C                    -0.078932
      2 C                    -0.305651
      3 C                    -0.066268
      4 H                     0.178139
      5 C                     0.108746
      6 S                    -0.188193
      7 C                    -0.295322
      8 H                     0.118908
      9 H                     0.107361
     10 H                     0.106775
     11 C                    -0.016855
     12 C                    -0.311250
     13 C                     0.050601
     14 H                     0.193562
     15 C                    -0.262848
     16 S                     0.010961
     17 C                    -0.270962
     18 H                     0.101254
     19 H                     0.110141
     20 H                     0.107476
     21 H                     0.197937
     22 H                     0.113122
     23 H                     0.110877
     24 H                     0.180422
  ----------------------------------------
  Sum of atomic charges =     0.000000

                    Cartesian Multipole Moments
 -----------------------------------------------------------------
    Charge (ESU x 10^10)
                -0.0000
    Dipole Moment (Debye)
         X       2.4388      Y      -0.2748      Z       3.7579
       Tot       4.4883
    Quadrupole Moments (Debye-Ang)
        XX     -87.4239     XY       3.2088     YY     -77.4127
        XZ       0.4107     YZ      -2.5025     ZZ     -85.6270

 Total job time:  686.85s(wall), 682.53s(cpu)
        *  Thank you very much for using Q-Chem.  Have a nice day.  *
