 Q-Chem 5.4, Q-Chem, Inc., Pleasanton, CA (2021)
 Q-Chem 5.4.0 for Intel X86 EM64T Linux

User input:
--------------------------------------------------------------
$molecule
0 1
C	-0.264439	-3.866725	-0.728625
C	0.209794	-3.703963	0.575519
C	0.364749	-2.357056	1.002336
H	0.446060	-4.561092	1.224165
C	0.000000	-1.440664	0.000000
S	-0.528253	-2.286957	-1.451336
C	0.862253	-1.978743	2.369885
H	1.082953	-2.878678	2.976034
H	0.115513	-1.376015	2.927887
H	1.792797	-1.375728	2.317620
C	0.000000	0.000000	0.000000
C	0.223548	0.834165	1.099446
C	0.581748	2.170912	0.776721
H	0.128089	0.477934	2.136088
C	0.638880	2.384045	-0.612546
S	0.243934	0.910282	-1.486809
C	0.863301	3.221592	1.814609
H	0.753137	2.810458	2.836676
H	0.170663	4.084559	1.726239
H	1.894637	3.622593	1.726228
H	0.884575	3.300913	-1.161575
H	-1.225465	-4.392713	-0.745219
H	0.461378	-4.392347	-1.359038
H	-1.014907	-1.440937	0.369273
$end

$rem
JOBTYPE		SP
EXCHANGE	HF
CORRELATION	pRIMP2
BASIS		cc-pvtz
METHOD		rimp2
AUX_BASIS	rimp2-cc-pvtz
SOLVENT_METHOD	PCM
PURECART	11111
SYMMETRY	false
MEM_TOTAL	110000
SCF_CONVERGENCE = 6
THRESH=10
$end

$solvent
dielectric 4.90
$end
--------------------------------------------------------------

             Standard Nuclear Orientation (Angstroms)
    I     Atom           X                Y                Z
 ----------------------------------------------------------------
    1      C      -0.2644390000    -3.8667250000    -0.7286250000
    2      C       0.2097940000    -3.7039630000     0.5755190000
    3      C       0.3647490000    -2.3570560000     1.0023360000
    4      H       0.4460600000    -4.5610920000     1.2241650000
    5      C       0.0000000000    -1.4406640000     0.0000000000
    6      S      -0.5282530000    -2.2869570000    -1.4513360000
    7      C       0.8622530000    -1.9787430000     2.3698850000
    8      H       1.0829530000    -2.8786780000     2.9760340000
    9      H       0.1155130000    -1.3760150000     2.9278870000
   10      H       1.7927970000    -1.3757280000     2.3176200000
   11      C       0.0000000000     0.0000000000     0.0000000000
   12      C       0.2235480000     0.8341650000     1.0994460000
   13      C       0.5817480000     2.1709120000     0.7767210000
   14      H       0.1280890000     0.4779340000     2.1360880000
   15      C       0.6388800000     2.3840450000    -0.6125460000
   16      S       0.2439340000     0.9102820000    -1.4868090000
   17      C       0.8633010000     3.2215920000     1.8146090000
   18      H       0.7531370000     2.8104580000     2.8366760000
   19      H       0.1706630000     4.0845590000     1.7262390000
   20      H       1.8946370000     3.6225930000     1.7262280000
   21      H       0.8845750000     3.3009130000    -1.1615750000
   22      H      -1.2254650000    -4.3927130000    -0.7452190000
   23      H       0.4613780000    -4.3923470000    -1.3590380000
   24      H      -1.0149070000    -1.4409370000     0.3692730000
 ----------------------------------------------------------------

   10   -1180.7509434112      5.09e-07  Convergence criterion met
 Total energy in the final basis set =    -1180.7509434112
        RIMP2         total energy =     -1182.7590919398 a.u.

                    Orbital Energies (a.u.)
 --------------------------------------------------------------

 Alpha MOs
 -- Occupied --
-91.9828 -91.9455 -11.2871 -11.2663 -11.2598 -11.2557 -11.2502 -11.2440
-11.2337 -11.2317 -11.2283 -11.2226  -8.9825  -8.9501  -6.6634  -6.6628
 -6.6622  -6.6315  -6.6305  -6.6293  -1.2018  -1.1524  -1.0599  -1.0313
 -1.0016  -0.9617  -0.9156  -0.8997  -0.8179  -0.7629  -0.7267  -0.7079
 -0.6576  -0.6479  -0.6105  -0.5935  -0.5871  -0.5694  -0.5596  -0.5526
 -0.5432  -0.5352  -0.5228  -0.5036  -0.4833  -0.4804  -0.4680  -0.4440
 -0.3598  -0.3432  -0.3232  -0.2646

          Ground-State Mulliken Net Atomic Charges

     Atom                 Charge (a.u.)
  ----------------------------------------
      1 C                    -0.074895
      2 C                    -0.316328
      3 C                    -0.067983
      4 H                     0.178945
      5 C                     0.140279
      6 S                    -0.179366
      7 C                    -0.298314
      8 H                     0.121590
      9 H                     0.099837
     10 H                     0.117981
     11 C                    -0.045740
     12 C                    -0.305825
     13 C                     0.052432
     14 H                     0.189490
     15 C                    -0.278942
     16 S                     0.015671
     17 C                    -0.272605
     18 H                     0.100781
     19 H                     0.108508
     20 H                     0.108565
     21 H                     0.195182
     22 H                     0.112422
     23 H                     0.113054
     24 H                     0.185260
  ----------------------------------------
  Sum of atomic charges =     0.000000

                    Cartesian Multipole Moments
 -----------------------------------------------------------------
    Charge (ESU x 10^10)
                -0.0000
    Dipole Moment (Debye)
         X       0.3932      Y      -0.3268      Z       3.9647
       Tot       3.9976
    Quadrupole Moments (Debye-Ang)
        XX     -90.8549     XY       2.7423     YY     -73.7731
        XZ       0.6543     YZ      -2.6385     ZZ     -85.9611

 Total job time:  666.19s(wall), 661.53s(cpu)
        *  Thank you very much for using Q-Chem.  Have a nice day.  *
