 Q-Chem 5.4, Q-Chem, Inc., Pleasanton, CA (2021)
 Q-Chem 5.4.0 for Intel X86 EM64T Linux

User input:
--------------------------------------------------------------
$molecule
0 1
C	-0.594240	-3.866725	0.497696
C	0.469057	-3.703963	-0.393981
C	0.817136	-2.357056	-0.685571
H	0.997777	-4.561092	-0.837848
C	-0.000000	-1.440664	-0.000000
S	-1.183137	-2.286957	0.992782
C	1.932056	-1.978743	-1.620802
H	2.426166	-2.878678	-2.035506
H	2.711806	-1.376015	-1.109943
H	1.564678	-1.375728	-2.477350
C	0.000000	0.000000	0.000000
C	0.149995	0.850475	1.099446
C	0.390327	2.213354	0.776721
H	0.085947	0.487279	2.136088
C	0.428665	2.430655	-0.612546
S	0.163670	0.928078	-1.486809
C	0.579235	3.284574	1.814609
H	0.505323	2.865404	2.836676
H	-0.185980	4.083890	1.726239
H	1.571698	3.773937	1.726228
H	0.593515	3.365448	-1.161575
H	-0.281143	-4.392713	1.406441
H	-1.434879	-4.392347	0.031265
H	0.694122	-1.440937	0.827402
$end

$rem
JOBTYPE		SP
EXCHANGE	HF
CORRELATION	pRIMP2
BASIS		cc-pvtz
METHOD		rimp2
AUX_BASIS	rimp2-cc-pvtz
SOLVENT_METHOD	PCM
PURECART	11111
SYMMETRY	false
MEM_TOTAL	110000
SCF_CONVERGENCE = 6
THRESH=10
$end

$solvent
dielectric 4.90
$end
--------------------------------------------------------------

             Standard Nuclear Orientation (Angstroms)
    I     Atom           X                Y                Z
 ----------------------------------------------------------------
    1      C      -0.5942400000    -3.8667250000     0.4976960000
    2      C       0.4690570000    -3.7039630000    -0.3939810000
    3      C       0.8171360000    -2.3570560000    -0.6855710000
    4      H       0.9977770000    -4.5610920000    -0.8378480000
    5      C       0.0000000000    -1.4406640000     0.0000000000
    6      S      -1.1831370000    -2.2869570000     0.9927820000
    7      C       1.9320560000    -1.9787430000    -1.6208020000
    8      H       2.4261660000    -2.8786780000    -2.0355060000
    9      H       2.7118060000    -1.3760150000    -1.1099430000
   10      H       1.5646780000    -1.3757280000    -2.4773500000
   11      C       0.0000000000     0.0000000000     0.0000000000
   12      C       0.1499950000     0.8504750000     1.0994460000
   13      C       0.3903270000     2.2133540000     0.7767210000
   14      H       0.0859470000     0.4872790000     2.1360880000
   15      C       0.4286650000     2.4306550000    -0.6125460000
   16      S       0.1636700000     0.9280780000    -1.4868090000
   17      C       0.5792350000     3.2845740000     1.8146090000
   18      H       0.5053230000     2.8654040000     2.8366760000
   19      H      -0.1859800000     4.0838900000     1.7262390000
   20      H       1.5716980000     3.7739370000     1.7262280000
   21      H       0.5935150000     3.3654480000    -1.1615750000
   22      H      -0.2811430000    -4.3927130000     1.4064410000
   23      H      -1.4348790000    -4.3923470000     0.0312650000
   24      H       0.6941220000    -1.4409370000     0.8274020000
 ----------------------------------------------------------------

   10   -1180.7580099018      4.96e-07  Convergence criterion met
 Total energy in the final basis set =    -1180.7580099018
        RIMP2         total energy =     -1182.7643170437 a.u.

                    Orbital Energies (a.u.)
 --------------------------------------------------------------

 Alpha MOs
 -- Occupied --
-91.9822 -91.9425 -11.2855 -11.2643 -11.2594 -11.2571 -11.2507 -11.2418
-11.2372 -11.2313 -11.2286 -11.2208  -8.9820  -8.9472  -6.6630  -6.6624
 -6.6618  -6.6285  -6.6275  -6.6262  -1.1999  -1.1529  -1.0592  -1.0259
 -1.0075  -0.9576  -0.9133  -0.9013  -0.8141  -0.7676  -0.7281  -0.7004
 -0.6624  -0.6430  -0.6105  -0.5868  -0.5804  -0.5734  -0.5678  -0.5525
 -0.5422  -0.5321  -0.5147  -0.5067  -0.4922  -0.4804  -0.4583  -0.4488
 -0.3559  -0.3435  -0.3189  -0.2705

          Ground-State Mulliken Net Atomic Charges

     Atom                 Charge (a.u.)
  ----------------------------------------
      1 C                    -0.076306
      2 C                    -0.324369
      3 C                    -0.025580
      4 H                     0.177496
      5 C                     0.077281
      6 S                    -0.177253
      7 C                    -0.279928
      8 H                     0.115196
      9 H                     0.109194
     10 H                     0.109351
     11 C                    -0.050336
     12 C                    -0.266836
     13 C                     0.028337
     14 H                     0.183678
     15 C                    -0.254309
     16 S                     0.007398
     17 C                    -0.271388
     18 H                     0.102466
     19 H                     0.108560
     20 H                     0.107740
     21 H                     0.196020
     22 H                     0.110508
     23 H                     0.113205
     24 H                     0.179876
  ----------------------------------------
  Sum of atomic charges =     0.000000

                    Cartesian Multipole Moments
 -----------------------------------------------------------------
    Charge (ESU x 10^10)
                -0.0000
    Dipole Moment (Debye)
         X       2.6990      Y       0.1473      Z       0.4808
       Tot       2.7455
    Quadrupole Moments (Debye-Ang)
        XX     -91.6901     XY      -1.9385     YY     -74.1277
        XZ       0.0457     YZ       2.3703     ZZ     -85.5811

 Total job time:  651.75s(wall), 647.12s(cpu)
        *  Thank you very much for using Q-Chem.  Have a nice day.  *
