 Q-Chem 5.4, Q-Chem, Inc., Pleasanton, CA (2021)
 Q-Chem 5.4.0 for Intel X86 EM64T Linux

User input:
--------------------------------------------------------------
$molecule
0 1
C	-0.728625	-3.866725	0.264439
C	0.575519	-3.703963	-0.209794
C	1.002336	-2.357056	-0.364749
H	1.224165	-4.561092	-0.446060
C	-0.000000	-1.440664	-0.000000
S	-1.451336	-2.286957	0.528253
C	2.369885	-1.978743	-0.862253
H	2.976034	-2.878678	-1.082953
H	2.927887	-1.376015	-0.115513
H	2.317620	-1.375728	-1.792797
C	0.000000	0.000000	0.000000
C	0.555137	0.661535	1.099446
C	1.444710	1.721658	0.776721
H	0.318072	0.379023	2.136088
C	1.586563	1.890676	-0.612546
S	0.605781	0.721904	-1.486809
C	2.143920	2.554907	1.814609
H	1.870325	2.228851	2.836676
H	1.880882	3.629742	1.726239
H	3.248098	2.482476	1.726228
H	2.196723	2.617806	-1.161575
H	-0.745219	-4.392713	1.225465
H	-1.359038	-4.392347	-0.461378
H	0.369273	-1.440937	1.014907
$end

$rem
JOBTYPE		SP
EXCHANGE	HF
CORRELATION	pRIMP2
BASIS		cc-pvtz
METHOD		rimp2
AUX_BASIS	rimp2-cc-pvtz
SOLVENT_METHOD	PCM
PURECART	11111
SYMMETRY	false
MEM_TOTAL	110000
SCF_CONVERGENCE = 6
THRESH=10
$end

$solvent
dielectric 4.90
$end
--------------------------------------------------------------

             Standard Nuclear Orientation (Angstroms)
    I     Atom           X                Y                Z
 ----------------------------------------------------------------
    1      C      -0.7286250000    -3.8667250000     0.2644390000
    2      C       0.5755190000    -3.7039630000    -0.2097940000
    3      C       1.0023360000    -2.3570560000    -0.3647490000
    4      H       1.2241650000    -4.5610920000    -0.4460600000
    5      C       0.0000000000    -1.4406640000     0.0000000000
    6      S      -1.4513360000    -2.2869570000     0.5282530000
    7      C       2.3698850000    -1.9787430000    -0.8622530000
    8      H       2.9760340000    -2.8786780000    -1.0829530000
    9      H       2.9278870000    -1.3760150000    -0.1155130000
   10      H       2.3176200000    -1.3757280000    -1.7927970000
   11      C       0.0000000000     0.0000000000     0.0000000000
   12      C       0.5551370000     0.6615350000     1.0994460000
   13      C       1.4447100000     1.7216580000     0.7767210000
   14      H       0.3180720000     0.3790230000     2.1360880000
   15      C       1.5865630000     1.8906760000    -0.6125460000
   16      S       0.6057810000     0.7219040000    -1.4868090000
   17      C       2.1439200000     2.5549070000     1.8146090000
   18      H       1.8703250000     2.2288510000     2.8366760000
   19      H       1.8808820000     3.6297420000     1.7262390000
   20      H       3.2480980000     2.4824760000     1.7262280000
   21      H       2.1967230000     2.6178060000    -1.1615750000
   22      H      -0.7452190000    -4.3927130000     1.2254650000
   23      H      -1.3590380000    -4.3923470000    -0.4613780000
   24      H       0.3692730000    -1.4409370000     1.0149070000
 ----------------------------------------------------------------

   10   -1180.7231167747      7.62e-07  Convergence criterion met
 Total energy in the final basis set =    -1180.7231167747
        RIMP2         total energy =     -1182.7391593400 a.u.

                    Orbital Energies (a.u.)
 --------------------------------------------------------------

 Alpha MOs
 -- Occupied --
-91.9814 -91.9346 -11.2736 -11.2706 -11.2614 -11.2525 -11.2507 -11.2495
-11.2376 -11.2306 -11.2280 -11.2165  -8.9816  -8.9396  -6.6625  -6.6618
 -6.6614  -6.6210  -6.6200  -6.6187  -1.2009  -1.1537  -1.0585  -1.0225
 -1.0087  -0.9592  -0.9097  -0.9026  -0.8092  -0.7636  -0.7385  -0.7003
 -0.6599  -0.6383  -0.6103  -0.5884  -0.5803  -0.5741  -0.5665  -0.5518
 -0.5421  -0.5274  -0.5197  -0.5044  -0.4932  -0.4657  -0.4582  -0.4434
 -0.3518  -0.3446  -0.3163  -0.2702

          Ground-State Mulliken Net Atomic Charges

     Atom                 Charge (a.u.)
  ----------------------------------------
      1 C                    -0.073009
      2 C                    -0.332656
      3 C                    -0.033669
      4 H                     0.175816
      5 C                     0.077328
      6 S                    -0.203688
      7 C                    -0.284011
      8 H                     0.117254
      9 H                     0.106382
     10 H                     0.114038
     11 C                    -0.078542
     12 C                    -0.218798
     13 C                     0.017685
     14 H                     0.182699
     15 C                    -0.217835
     16 S                     0.010947
     17 C                    -0.268866
     18 H                     0.102682
     19 H                     0.108446
     20 H                     0.106338
     21 H                     0.198166
     22 H                     0.107335
     23 H                     0.108579
     24 H                     0.177377
  ----------------------------------------
  Sum of atomic charges =     0.000000

                    Cartesian Multipole Moments
 -----------------------------------------------------------------
    Charge (ESU x 10^10)
                -0.0000
    Dipole Moment (Debye)
         X       4.1985      Y       0.8613      Z       1.3614
       Tot       4.4970
    Quadrupole Moments (Debye-Ang)
        XX     -87.6650     XY       1.4861     YY     -79.4865
        XZ       0.3390     YZ       0.9222     ZZ     -85.3115

 Total job time:  682.08s(wall), 678.89s(cpu)
        *  Thank you very much for using Q-Chem.  Have a nice day.  *
