 Q-Chem 5.4, Q-Chem, Inc., Pleasanton, CA (2021)
 Q-Chem 5.4.0 for Intel X86 EM64T Linux

User input:
--------------------------------------------------------------
$molecule
0 1
C	-0.728138	-3.866725	-0.265779
C	0.575726	-3.703963	0.209225
C	1.002290	-2.357056	0.364875
H	1.224486	-4.561092	0.445176
C	0.000000	-1.440664	0.000000
S	-1.451343	-2.286957	-0.528236
C	2.369683	-1.978743	0.862808
H	2.975883	-2.878678	1.083368
H	2.317142	-1.376015	1.793522
H	2.927787	-1.375728	0.116375
C	0.000000	0.000000	0.000000
C	0.431829	0.747884	1.099446
C	1.123799	1.946373	0.776721
H	0.247423	0.428497	2.136088
C	1.234147	2.137457	-0.612546
S	0.471221	0.816130	-1.486809
C	1.667694	2.888380	1.814609
H	1.454874	2.519768	2.836676
H	1.222009	3.901210	1.726239
H	2.767675	3.008788	1.726228
H	1.708773	2.959493	-1.161575
H	-1.358585	-4.392713	0.459743
H	-0.744515	-4.392347	-1.227009
H	-0.369490	-1.440937	1.014829
$end

$rem
JOBTYPE		SP
EXCHANGE	HF
CORRELATION	pRIMP2
BASIS		cc-pvtz
METHOD		rimp2
AUX_BASIS	rimp2-cc-pvtz
SOLVENT_METHOD	PCM
PURECART	11111
SYMMETRY	false
MEM_TOTAL	110000
SCF_CONVERGENCE = 6
THRESH=10
$end

$solvent
dielectric 4.90
$end
--------------------------------------------------------------

             Standard Nuclear Orientation (Angstroms)
    I     Atom           X                Y                Z
 ----------------------------------------------------------------
    1      C      -0.7281380000    -3.8667250000    -0.2657790000
    2      C       0.5757260000    -3.7039630000     0.2092250000
    3      C       1.0022900000    -2.3570560000     0.3648750000
    4      H       1.2244860000    -4.5610920000     0.4451760000
    5      C       0.0000000000    -1.4406640000     0.0000000000
    6      S      -1.4513430000    -2.2869570000    -0.5282360000
    7      C       2.3696830000    -1.9787430000     0.8628080000
    8      H       2.9758830000    -2.8786780000     1.0833680000
    9      H       2.3171420000    -1.3760150000     1.7935220000
   10      H       2.9277870000    -1.3757280000     0.1163750000
   11      C       0.0000000000     0.0000000000     0.0000000000
   12      C       0.4318290000     0.7478840000     1.0994460000
   13      C       1.1237990000     1.9463730000     0.7767210000
   14      H       0.2474230000     0.4284970000     2.1360880000
   15      C       1.2341470000     2.1374570000    -0.6125460000
   16      S       0.4712210000     0.8161300000    -1.4868090000
   17      C       1.6676940000     2.8883800000     1.8146090000
   18      H       1.4548740000     2.5197680000     2.8366760000
   19      H       1.2220090000     3.9012100000     1.7262390000
   20      H       2.7676750000     3.0087880000     1.7262280000
   21      H       1.7087730000     2.9594930000    -1.1615750000
   22      H      -1.3585850000    -4.3927130000     0.4597430000
   23      H      -0.7445150000    -4.3923470000    -1.2270090000
   24      H      -0.3694900000    -1.4409370000     1.0148290000
 ----------------------------------------------------------------

   10   -1180.7469785230      5.90e-07  Convergence criterion met
 Total energy in the final basis set =    -1180.7469785230
        RIMP2         total energy =     -1182.7570079253 a.u.

                    Orbital Energies (a.u.)
 --------------------------------------------------------------

 Alpha MOs
 -- Occupied --
-91.9793 -91.9380 -11.2740 -11.2712 -11.2622 -11.2541 -11.2520 -11.2488
-11.2393 -11.2309 -11.2304 -11.2187  -8.9796  -8.9428  -6.6605  -6.6598
 -6.6593  -6.6242  -6.6232  -6.6220  -1.1988  -1.1543  -1.0581  -1.0254
 -1.0050  -0.9618  -0.9111  -0.9017  -0.8132  -0.7600  -0.7372  -0.7049
 -0.6581  -0.6405  -0.6112  -0.5905  -0.5820  -0.5723  -0.5640  -0.5525
 -0.5413  -0.5288  -0.5192  -0.5065  -0.4884  -0.4720  -0.4600  -0.4458
 -0.3536  -0.3422  -0.3154  -0.2786

          Ground-State Mulliken Net Atomic Charges

     Atom                 Charge (a.u.)
  ----------------------------------------
      1 C                    -0.075251
      2 C                    -0.324372
      3 C                    -0.031717
      4 H                     0.176493
      5 C                     0.071266
      6 S                    -0.185024
      7 C                    -0.271937
      8 H                     0.116506
      9 H                     0.099170
     10 H                     0.112956
     11 C                    -0.053431
     12 C                    -0.278270
     13 C                     0.043976
     14 H                     0.190157
     15 C                    -0.229760
     16 S                     0.003762
     17 C                    -0.269864
     18 H                     0.102192
     19 H                     0.108988
     20 H                     0.107674
     21 H                     0.198525
     22 H                     0.108591
     23 H                     0.109646
     24 H                     0.169722
  ----------------------------------------
  Sum of atomic charges =     0.000000

                    Cartesian Multipole Moments
 -----------------------------------------------------------------
    Charge (ESU x 10^10)
                -0.0000
    Dipole Moment (Debye)
         X       3.1642      Y       0.7527      Z       3.1909
       Tot       4.5563
    Quadrupole Moments (Debye-Ang)
        XX     -88.8735     XY       1.8555     YY     -76.4727
        XZ       0.2891     YZ      -1.6508     ZZ     -86.2125

 Total job time:  667.30s(wall), 663.50s(cpu)
        *  Thank you very much for using Q-Chem.  Have a nice day.  *
