 Q-Chem 5.4, Q-Chem, Inc., Pleasanton, CA (2021)
 Q-Chem 5.4.0 for Intel X86 EM64T Linux

User input:
--------------------------------------------------------------
$molecule
0 1
C	-0.133897	-3.866725	-0.763475
C	0.106669	-3.703963	0.603206
C	0.185154	-2.357056	1.050446
H	0.226709	-4.561092	1.283024
C	0.000000	-1.440664	0.000000
S	-0.268206	-2.286957	-1.521018
C	0.437628	-1.978743	2.483610
H	0.549717	-2.878678	3.118875
H	-0.394664	-1.376015	2.903464
H	1.363110	-1.375728	2.593726
C	0.000000	0.000000	0.000000
C	0.661577	0.555087	1.099446
C	1.721724	1.444630	0.776721
H	0.379056	0.318032	2.136088
C	1.890772	1.586449	-0.612546
S	0.721935	0.605744	-1.486809
C	2.555004	2.143805	1.814609
H	2.228946	1.870211	2.836676
H	2.482605	3.247987	1.726239
H	3.629830	1.880735	1.726228
H	2.617927	2.196579	-1.161575
H	-1.077442	-4.392713	-0.946698
H	0.690363	-4.392347	-1.258274
H	1.063612	-1.440391	-0.187427
$end

$rem
JOBTYPE		SP
EXCHANGE	HF
CORRELATION	pRIMP2
BASIS		cc-pvtz
METHOD		rimp2
AUX_BASIS	rimp2-cc-pvtz
SOLVENT_METHOD	PCM
PURECART	11111
SYMMETRY	false
MEM_TOTAL	110000
SCF_CONVERGENCE = 6
THRESH=10
$end

$solvent
dielectric 4.90
$end
--------------------------------------------------------------

             Standard Nuclear Orientation (Angstroms)
    I     Atom           X                Y                Z
 ----------------------------------------------------------------
    1      C      -0.1338970000    -3.8667250000    -0.7634750000
    2      C       0.1066690000    -3.7039630000     0.6032060000
    3      C       0.1851540000    -2.3570560000     1.0504460000
    4      H       0.2267090000    -4.5610920000     1.2830240000
    5      C       0.0000000000    -1.4406640000     0.0000000000
    6      S      -0.2682060000    -2.2869570000    -1.5210180000
    7      C       0.4376280000    -1.9787430000     2.4836100000
    8      H       0.5497170000    -2.8786780000     3.1188750000
    9      H      -0.3946640000    -1.3760150000     2.9034640000
   10      H       1.3631100000    -1.3757280000     2.5937260000
   11      C       0.0000000000     0.0000000000     0.0000000000
   12      C       0.6615770000     0.5550870000     1.0994460000
   13      C       1.7217240000     1.4446300000     0.7767210000
   14      H       0.3790560000     0.3180320000     2.1360880000
   15      C       1.8907720000     1.5864490000    -0.6125460000
   16      S       0.7219350000     0.6057440000    -1.4868090000
   17      C       2.5550040000     2.1438050000     1.8146090000
   18      H       2.2289460000     1.8702110000     2.8366760000
   19      H       2.4826050000     3.2479870000     1.7262390000
   20      H       3.6298300000     1.8807350000     1.7262280000
   21      H       2.6179270000     2.1965790000    -1.1615750000
   22      H      -1.0774420000    -4.3927130000    -0.9466980000
   23      H       0.6903630000    -4.3923470000    -1.2582740000
   24      H       1.0636120000    -1.4403910000    -0.1874270000
 ----------------------------------------------------------------

   10   -1180.7021976629      9.67e-07  Convergence criterion met
 Total energy in the final basis set =    -1180.7021976629
        RIMP2         total energy =     -1182.7240229729 a.u.

                    Orbital Energies (a.u.)
 --------------------------------------------------------------

 Alpha MOs
 -- Occupied --
-91.9786 -91.9379 -11.2729 -11.2722 -11.2626 -11.2589 -11.2520 -11.2407
-11.2395 -11.2331 -11.2300 -11.2206  -8.9796  -8.9431  -6.6604  -6.6597
 -6.6592  -6.6245  -6.6235  -6.6223  -1.2084  -1.1532  -1.0610  -1.0336
 -0.9976  -0.9640  -0.9148  -0.9013  -0.8118  -0.7622  -0.7344  -0.7079
 -0.6559  -0.6466  -0.6120  -0.5962  -0.5841  -0.5713  -0.5592  -0.5521
 -0.5472  -0.5372  -0.5264  -0.5056  -0.4805  -0.4762  -0.4566  -0.4374
 -0.3606  -0.3408  -0.3232  -0.2610

          Ground-State Mulliken Net Atomic Charges

     Atom                 Charge (a.u.)
  ----------------------------------------
      1 C                    -0.079425
      2 C                    -0.308865
      3 C                    -0.060685
      4 H                     0.177028
      5 C                     0.101445
      6 S                    -0.191664
      7 C                    -0.288922
      8 H                     0.117924
      9 H                     0.106798
     10 H                     0.104475
     11 C                    -0.056381
     12 C                    -0.265845
     13 C                     0.032172
     14 H                     0.196180
     15 C                    -0.237507
     16 S                     0.016677
     17 C                    -0.272529
     18 H                     0.101732
     19 H                     0.111603
     20 H                     0.107119
     21 H                     0.199349
     22 H                     0.112805
     23 H                     0.109921
     24 H                     0.166594
  ----------------------------------------
  Sum of atomic charges =     0.000000

                    Cartesian Multipole Moments
 -----------------------------------------------------------------
    Charge (ESU x 10^10)
                -0.0000
    Dipole Moment (Debye)
         X       2.9238      Y      -0.1022      Z       3.8214
       Tot       4.8127
    Quadrupole Moments (Debye-Ang)
        XX     -85.2742     XY       3.6120     YY     -79.6710
        XZ       0.3591     YZ      -2.7097     ZZ     -85.4467

 Total job time:  702.26s(wall), 699.73s(cpu)
        *  Thank you very much for using Q-Chem.  Have a nice day.  *
