 Q-Chem 5.4, Q-Chem, Inc., Pleasanton, CA (2021)
 Q-Chem 5.4.0 for Intel X86 EM64T Linux

User input:
--------------------------------------------------------------
$molecule
0 1
C	-0.135301	-3.866725	0.763228
C	0.106073	-3.703963	-0.603311
C	0.185286	-2.357056	-1.050423
H	0.225783	-4.561092	-1.283188
C	-0.000000	-1.440664	-0.000000
S	-0.268187	-2.286957	1.521021
C	0.438209	-1.978743	-2.483507
H	0.550153	-2.878678	-3.118798
H	1.363906	-1.376015	-2.593381
H	-0.393798	-1.375728	-2.903516
C	0.000000	0.000000	0.000000
C	0.075300	0.860311	1.099446
C	0.195935	2.238951	0.776721
H	0.043151	0.492916	2.136088
C	0.215188	2.458766	-0.612546
S	0.082160	0.938811	-1.486809
C	0.290762	3.322559	1.814609
H	0.253664	2.898542	2.836676
H	-0.541206	4.052140	1.726239
H	1.236797	3.896558	1.726228
H	0.297938	3.404370	-1.161575
H	0.688674	-4.392713	1.258111
H	-1.079084	-4.392347	0.946272
H	-1.063572	-1.440391	-0.187654
$end

$rem
JOBTYPE		SP
EXCHANGE	HF
CORRELATION	pRIMP2
BASIS		cc-pvtz
METHOD		rimp2
AUX_BASIS	rimp2-cc-pvtz
SOLVENT_METHOD	PCM
PURECART	11111
SYMMETRY	false
MEM_TOTAL	110000
SCF_CONVERGENCE = 6
THRESH=10
$end

$solvent
dielectric 4.90
$end
--------------------------------------------------------------

             Standard Nuclear Orientation (Angstroms)
    I     Atom           X                Y                Z
 ----------------------------------------------------------------
    1      C      -0.1353010000    -3.8667250000     0.7632280000
    2      C       0.1060730000    -3.7039630000    -0.6033110000
    3      C       0.1852860000    -2.3570560000    -1.0504230000
    4      H       0.2257830000    -4.5610920000    -1.2831880000
    5      C       0.0000000000    -1.4406640000     0.0000000000
    6      S      -0.2681870000    -2.2869570000     1.5210210000
    7      C       0.4382090000    -1.9787430000    -2.4835070000
    8      H       0.5501530000    -2.8786780000    -3.1187980000
    9      H       1.3639060000    -1.3760150000    -2.5933810000
   10      H      -0.3937980000    -1.3757280000    -2.9035160000
   11      C       0.0000000000     0.0000000000     0.0000000000
   12      C       0.0753000000     0.8603110000     1.0994460000
   13      C       0.1959350000     2.2389510000     0.7767210000
   14      H       0.0431510000     0.4929160000     2.1360880000
   15      C       0.2151880000     2.4587660000    -0.6125460000
   16      S       0.0821600000     0.9388110000    -1.4868090000
   17      C       0.2907620000     3.3225590000     1.8146090000
   18      H       0.2536640000     2.8985420000     2.8366760000
   19      H      -0.5412060000     4.0521400000     1.7262390000
   20      H       1.2367970000     3.8965580000     1.7262280000
   21      H       0.2979380000     3.4043700000    -1.1615750000
   22      H       0.6886740000    -4.3927130000     1.2581110000
   23      H      -1.0790840000    -4.3923470000     0.9462720000
   24      H      -1.0635720000    -1.4403910000    -0.1876540000
 ----------------------------------------------------------------

   10   -1180.7576500149      5.09e-07  Convergence criterion met
 Total energy in the final basis set =    -1180.7576500149
        RIMP2         total energy =     -1182.7634154048 a.u.

                    Orbital Energies (a.u.)
 --------------------------------------------------------------

 Alpha MOs
 -- Occupied --
-91.9813 -91.9469 -11.2902 -11.2665 -11.2622 -11.2535 -11.2496 -11.2444
-11.2330 -11.2306 -11.2273 -11.2233  -8.9814  -8.9514  -6.6623  -6.6618
 -6.6611  -6.6328  -6.6318  -6.6305  -1.2028  -1.1523  -1.0612  -1.0286
 -1.0066  -0.9569  -0.9167  -0.9016  -0.8151  -0.7725  -0.7180  -0.7052
 -0.6588  -0.6484  -0.6109  -0.5933  -0.5822  -0.5714  -0.5682  -0.5537
 -0.5422  -0.5343  -0.5163  -0.5098  -0.4879  -0.4855  -0.4583  -0.4453
 -0.3592  -0.3418  -0.3266  -0.2652

          Ground-State Mulliken Net Atomic Charges

     Atom                 Charge (a.u.)
  ----------------------------------------
      1 C                    -0.073027
      2 C                    -0.317887
      3 C                    -0.061301
      4 H                     0.179508
      5 C                     0.169672
      6 S                    -0.185380
      7 C                    -0.307911
      8 H                     0.121819
      9 H                     0.119184
     10 H                     0.107184
     11 C                    -0.050867
     12 C                    -0.301212
     13 C                     0.040164
     14 H                     0.179222
     15 C                    -0.277144
     16 S                     0.003065
     17 C                    -0.272562
     18 H                     0.102648
     19 H                     0.108321
     20 H                     0.108329
     21 H                     0.196721
     22 H                     0.112976
     23 H                     0.112617
     24 H                     0.185862
  ----------------------------------------
  Sum of atomic charges =     0.000000

                    Cartesian Multipole Moments
 -----------------------------------------------------------------
    Charge (ESU x 10^10)
                -0.0000
    Dipole Moment (Debye)
         X      -0.3029      Y      -0.4837      Z      -1.2050
       Tot       1.3333
    Quadrupole Moments (Debye-Ang)
        XX     -91.6136     XY       1.7108     YY     -73.0314
        XZ      -0.3279     YZ       4.8991     ZZ     -85.6396

 Total job time:  654.77s(wall), 651.77s(cpu)
        *  Thank you very much for using Q-Chem.  Have a nice day.  *
