 Q-Chem 5.4, Q-Chem, Inc., Pleasanton, CA (2021)
 Q-Chem 5.4.0 for Intel X86 EM64T Linux

User input:
--------------------------------------------------------------
$molecule
0 1
C	-0.135301	-3.866725	0.763228
C	0.106073	-3.703963	-0.603311
C	0.185286	-2.357056	-1.050423
H	0.225783	-4.561092	-1.283188
C	-0.000000	-1.440664	-0.000000
S	-0.268187	-2.286957	1.521021
C	0.438209	-1.978743	-2.483507
H	0.550153	-2.878678	-3.118798
H	1.363906	-1.376015	-2.593381
H	-0.393798	-1.375728	-2.903516
C	0.000000	0.000000	0.000000
C	0.295399	0.811508	1.099446
C	0.768742	2.111949	0.776721
H	0.169256	0.464952	2.136088
C	0.844232	2.319291	-0.612546
S	0.322342	0.885558	-1.486809
C	1.140796	3.134091	1.814609
H	0.995218	2.734123	2.836676
H	0.526006	4.054142	1.726239
H	2.203157	3.443680	1.726228
H	1.168902	3.211257	-1.161575
H	0.688674	-4.392713	1.258111
H	-1.079084	-4.392347	0.946272
H	1.063572	-1.440937	0.187654
$end

$rem
JOBTYPE		SP
EXCHANGE	HF
CORRELATION	pRIMP2
BASIS		cc-pvtz
METHOD		rimp2
AUX_BASIS	rimp2-cc-pvtz
SOLVENT_METHOD	PCM
PURECART	11111
SYMMETRY	false
MEM_TOTAL	110000
SCF_CONVERGENCE = 6
THRESH=10
$end

$solvent
dielectric 4.90
$end
--------------------------------------------------------------

             Standard Nuclear Orientation (Angstroms)
    I     Atom           X                Y                Z
 ----------------------------------------------------------------
    1      C      -0.1353010000    -3.8667250000     0.7632280000
    2      C       0.1060730000    -3.7039630000    -0.6033110000
    3      C       0.1852860000    -2.3570560000    -1.0504230000
    4      H       0.2257830000    -4.5610920000    -1.2831880000
    5      C       0.0000000000    -1.4406640000     0.0000000000
    6      S      -0.2681870000    -2.2869570000     1.5210210000
    7      C       0.4382090000    -1.9787430000    -2.4835070000
    8      H       0.5501530000    -2.8786780000    -3.1187980000
    9      H       1.3639060000    -1.3760150000    -2.5933810000
   10      H      -0.3937980000    -1.3757280000    -2.9035160000
   11      C       0.0000000000     0.0000000000     0.0000000000
   12      C       0.2953990000     0.8115080000     1.0994460000
   13      C       0.7687420000     2.1119490000     0.7767210000
   14      H       0.1692560000     0.4649520000     2.1360880000
   15      C       0.8442320000     2.3192910000    -0.6125460000
   16      S       0.3223420000     0.8855580000    -1.4868090000
   17      C       1.1407960000     3.1340910000     1.8146090000
   18      H       0.9952180000     2.7341230000     2.8366760000
   19      H       0.5260060000     4.0541420000     1.7262390000
   20      H       2.2031570000     3.4436800000     1.7262280000
   21      H       1.1689020000     3.2112570000    -1.1615750000
   22      H       0.6886740000    -4.3927130000     1.2581110000
   23      H      -1.0790840000    -4.3923470000     0.9462720000
   24      H       1.0635720000    -1.4409370000     0.1876540000
 ----------------------------------------------------------------

   10   -1180.7504154615      4.88e-07  Convergence criterion met
 Total energy in the final basis set =    -1180.7504154615
        RIMP2         total energy =     -1182.7586312284 a.u.

                    Orbital Energies (a.u.)
 --------------------------------------------------------------

 Alpha MOs
 -- Occupied --
-91.9808 -91.9458 -11.2895 -11.2653 -11.2622 -11.2539 -11.2500 -11.2440
-11.2320 -11.2302 -11.2276 -11.2226  -8.9810  -8.9504  -6.6619  -6.6613
 -6.6607  -6.6318  -6.6308  -6.6296  -1.2036  -1.1522  -1.0611  -1.0285
 -1.0068  -0.9556  -0.9159  -0.9019  -0.8134  -0.7724  -0.7177  -0.7029
 -0.6628  -0.6481  -0.6113  -0.5895  -0.5827  -0.5720  -0.5684  -0.5541
 -0.5424  -0.5339  -0.5165  -0.5108  -0.4905  -0.4803  -0.4568  -0.4449
 -0.3585  -0.3415  -0.3265  -0.2639

          Ground-State Mulliken Net Atomic Charges

     Atom                 Charge (a.u.)
  ----------------------------------------
      1 C                    -0.074842
      2 C                    -0.315252
      3 C                    -0.050040
      4 H                     0.178881
      5 C                     0.103123
      6 S                    -0.187393
      7 C                    -0.306860
      8 H                     0.119227
      9 H                     0.113492
     10 H                     0.113016
     11 C                     0.007669
     12 C                    -0.319721
     13 C                     0.047821
     14 H                     0.177295
     15 C                    -0.281711
     16 S                     0.008855
     17 C                    -0.270647
     18 H                     0.102739
     19 H                     0.108602
     20 H                     0.107855
     21 H                     0.196406
     22 H                     0.111559
     23 H                     0.113675
     24 H                     0.196251
  ----------------------------------------
  Sum of atomic charges =     0.000000

                    Cartesian Multipole Moments
 -----------------------------------------------------------------
    Charge (ESU x 10^10)
                -0.0000
    Dipole Moment (Debye)
         X       1.7854      Y      -0.5008      Z      -0.9398
       Tot       2.0788
    Quadrupole Moments (Debye-Ang)
        XX     -90.6305     XY       1.0981     YY     -74.5541
        XZ       0.5631     YZ       4.2325     ZZ     -85.4427

 Total job time:  693.06s(wall), 688.53s(cpu)
        *  Thank you very much for using Q-Chem.  Have a nice day.  *
