 Q-Chem 5.4, Q-Chem, Inc., Pleasanton, CA (2021)
 Q-Chem 5.4.0 for Intel X86 EM64T Linux

User input:
--------------------------------------------------------------
$molecule
0 1
C	0.728138	-3.866725	0.265779
C	-0.575726	-3.703963	-0.209225
C	-1.002290	-2.357056	-0.364875
H	-1.224486	-4.561092	-0.445176
C	0.000000	-1.440664	0.000000
S	1.451343	-2.286957	0.528236
C	-2.369683	-1.978743	-0.862808
H	-2.975883	-2.878678	-1.083368
H	-2.317142	-1.376015	-1.793522
H	-2.927787	-1.375728	-0.116375
C	0.000000	0.000000	0.000000
C	0.661577	0.555087	1.099446
C	1.721724	1.444630	0.776721
H	0.379056	0.318032	2.136088
C	1.890772	1.586449	-0.612546
S	0.721935	0.605744	-1.486809
C	2.555004	2.143805	1.814609
H	2.228946	1.870211	2.836676
H	2.482605	3.247987	1.726239
H	3.629830	1.880735	1.726228
H	2.617927	2.196579	-1.161575
H	1.358585	-4.392713	-0.459743
H	0.744515	-4.392347	1.227009
H	0.369490	-1.440937	-1.014829
$end

$rem
JOBTYPE		SP
EXCHANGE	HF
CORRELATION	pRIMP2
BASIS		cc-pvtz
METHOD		rimp2
AUX_BASIS	rimp2-cc-pvtz
SOLVENT_METHOD	PCM
PURECART	11111
SYMMETRY	false
MEM_TOTAL	110000
SCF_CONVERGENCE = 6
THRESH=10
$end

$solvent
dielectric 4.90
$end
--------------------------------------------------------------

             Standard Nuclear Orientation (Angstroms)
    I     Atom           X                Y                Z
 ----------------------------------------------------------------
    1      C       0.7281380000    -3.8667250000     0.2657790000
    2      C      -0.5757260000    -3.7039630000    -0.2092250000
    3      C      -1.0022900000    -2.3570560000    -0.3648750000
    4      H      -1.2244860000    -4.5610920000    -0.4451760000
    5      C       0.0000000000    -1.4406640000     0.0000000000
    6      S       1.4513430000    -2.2869570000     0.5282360000
    7      C      -2.3696830000    -1.9787430000    -0.8628080000
    8      H      -2.9758830000    -2.8786780000    -1.0833680000
    9      H      -2.3171420000    -1.3760150000    -1.7935220000
   10      H      -2.9277870000    -1.3757280000    -0.1163750000
   11      C       0.0000000000     0.0000000000     0.0000000000
   12      C       0.6615770000     0.5550870000     1.0994460000
   13      C       1.7217240000     1.4446300000     0.7767210000
   14      H       0.3790560000     0.3180320000     2.1360880000
   15      C       1.8907720000     1.5864490000    -0.6125460000
   16      S       0.7219350000     0.6057440000    -1.4868090000
   17      C       2.5550040000     2.1438050000     1.8146090000
   18      H       2.2289460000     1.8702110000     2.8366760000
   19      H       2.4826050000     3.2479870000     1.7262390000
   20      H       3.6298300000     1.8807350000     1.7262280000
   21      H       2.6179270000     2.1965790000    -1.1615750000
   22      H       1.3585850000    -4.3927130000    -0.4597430000
   23      H       0.7445150000    -4.3923470000     1.2270090000
   24      H       0.3694900000    -1.4409370000    -1.0148290000
 ----------------------------------------------------------------

   10   -1180.7052329228      7.15e-07  Convergence criterion met
 Total energy in the final basis set =    -1180.7052329228
        RIMP2         total energy =     -1182.7215661210 a.u.

                    Orbital Energies (a.u.)
 --------------------------------------------------------------

 Alpha MOs
 -- Occupied --
-91.9802 -91.9372 -11.2808 -11.2608 -11.2554 -11.2543 -11.2518 -11.2472
-11.2368 -11.2296 -11.2294 -11.2114  -8.9813  -8.9420  -6.6621  -6.6613
 -6.6609  -6.6234  -6.6224  -6.6211  -1.2034  -1.1533  -1.0592  -1.0243
 -1.0029  -0.9618  -0.9121  -0.9000  -0.8076  -0.7667  -0.7395  -0.7032
 -0.6503  -0.6305  -0.6141  -0.5871  -0.5781  -0.5761  -0.5667  -0.5513
 -0.5413  -0.5331  -0.5106  -0.5061  -0.4861  -0.4675  -0.4632  -0.4429
 -0.3564  -0.3386  -0.3180  -0.2690

          Ground-State Mulliken Net Atomic Charges

     Atom                 Charge (a.u.)
  ----------------------------------------
      1 C                    -0.079633
      2 C                    -0.336346
      3 C                    -0.050669
      4 H                     0.172569
      5 C                     0.075672
      6 S                    -0.190279
      7 C                    -0.274727
      8 H                     0.113303
      9 H                     0.100168
     10 H                     0.107066
     11 C                    -0.108129
     12 C                    -0.204748
     13 C                     0.027978
     14 H                     0.188550
     15 C                    -0.195253
     16 S                     0.011408
     17 C                    -0.266996
     18 H                     0.103246
     19 H                     0.108492
     20 H                     0.107146
     21 H                     0.200858
     22 H                     0.108496
     23 H                     0.107847
     24 H                     0.173983
  ----------------------------------------
  Sum of atomic charges =     0.000000

                    Cartesian Multipole Moments
 -----------------------------------------------------------------
    Charge (ESU x 10^10)
                -0.0000
    Dipole Moment (Debye)
         X       0.1183      Y       1.0217      Z       0.1967
       Tot       1.0472
    Quadrupole Moments (Debye-Ang)
        XX     -84.6331     XY       8.7782     YY     -81.9746
        XZ       0.3400     YZ       3.0906     ZZ     -85.4751

 Total job time:  667.80s(wall), 664.74s(cpu)
        *  Thank you very much for using Q-Chem.  Have a nice day.  *
