 Q-Chem 5.4, Q-Chem, Inc., Pleasanton, CA (2021)
 Q-Chem 5.4.0 for Intel X86 EM64T Linux

User input:
--------------------------------------------------------------
$molecule
0 1
C	-0.728138	-3.866725	-0.265779
C	0.575726	-3.703963	0.209225
C	1.002290	-2.357056	0.364875
H	1.224486	-4.561092	0.445176
C	0.000000	-1.440664	0.000000
S	-1.451343	-2.286957	-0.528236
C	2.369683	-1.978743	0.862808
H	2.975883	-2.878678	1.083368
H	2.317142	-1.376015	1.793522
H	2.927787	-1.375728	0.116375
C	0.000000	0.000000	0.000000
C	0.661577	0.555087	1.099446
C	1.721724	1.444630	0.776721
H	0.379056	0.318032	2.136088
C	1.890772	1.586449	-0.612546
S	0.721935	0.605744	-1.486809
C	2.555004	2.143805	1.814609
H	2.228946	1.870211	2.836676
H	2.482605	3.247987	1.726239
H	3.629830	1.880735	1.726228
H	2.617927	2.196579	-1.161575
H	-1.358585	-4.392713	0.459743
H	-0.744515	-4.392347	-1.227009
H	-0.369490	-1.440937	1.014829
$end

$rem
JOBTYPE		SP
EXCHANGE	HF
CORRELATION	pRIMP2
BASIS		cc-pvtz
METHOD		rimp2
AUX_BASIS	rimp2-cc-pvtz
SOLVENT_METHOD	PCM
PURECART	11111
SYMMETRY	false
MEM_TOTAL	110000
SCF_CONVERGENCE = 6
THRESH=10
$end

$solvent
dielectric 4.90
$end
--------------------------------------------------------------

             Standard Nuclear Orientation (Angstroms)
    I     Atom           X                Y                Z
 ----------------------------------------------------------------
    1      C      -0.7281380000    -3.8667250000    -0.2657790000
    2      C       0.5757260000    -3.7039630000     0.2092250000
    3      C       1.0022900000    -2.3570560000     0.3648750000
    4      H       1.2244860000    -4.5610920000     0.4451760000
    5      C       0.0000000000    -1.4406640000     0.0000000000
    6      S      -1.4513430000    -2.2869570000    -0.5282360000
    7      C       2.3696830000    -1.9787430000     0.8628080000
    8      H       2.9758830000    -2.8786780000     1.0833680000
    9      H       2.3171420000    -1.3760150000     1.7935220000
   10      H       2.9277870000    -1.3757280000     0.1163750000
   11      C       0.0000000000     0.0000000000     0.0000000000
   12      C       0.6615770000     0.5550870000     1.0994460000
   13      C       1.7217240000     1.4446300000     0.7767210000
   14      H       0.3790560000     0.3180320000     2.1360880000
   15      C       1.8907720000     1.5864490000    -0.6125460000
   16      S       0.7219350000     0.6057440000    -1.4868090000
   17      C       2.5550040000     2.1438050000     1.8146090000
   18      H       2.2289460000     1.8702110000     2.8366760000
   19      H       2.4826050000     3.2479870000     1.7262390000
   20      H       3.6298300000     1.8807350000     1.7262280000
   21      H       2.6179270000     2.1965790000    -1.1615750000
   22      H      -1.3585850000    -4.3927130000     0.4597430000
   23      H      -0.7445150000    -4.3923470000    -1.2270090000
   24      H      -0.3694900000    -1.4409370000     1.0148290000
 ----------------------------------------------------------------

   10   -1180.7137270195      7.93e-07  Convergence criterion met
 Total energy in the final basis set =    -1180.7137270195
        RIMP2         total energy =     -1182.7326793505 a.u.

                    Orbital Energies (a.u.)
 --------------------------------------------------------------

 Alpha MOs
 -- Occupied --
-91.9779 -91.9334 -11.2825 -11.2605 -11.2595 -11.2585 -11.2531 -11.2511
-11.2367 -11.2317 -11.2298 -11.2167  -8.9786  -8.9384  -6.6595  -6.6587
 -6.6583  -6.6198  -6.6188  -6.6175  -1.2023  -1.1545  -1.0586  -1.0251
 -1.0052  -0.9625  -0.9106  -0.9024  -0.8098  -0.7593  -0.7423  -0.7054
 -0.6550  -0.6385  -0.6131  -0.5923  -0.5842  -0.5722  -0.5643  -0.5534
 -0.5409  -0.5273  -0.5228  -0.5071  -0.4869  -0.4648  -0.4523  -0.4424
 -0.3510  -0.3424  -0.3172  -0.2754

          Ground-State Mulliken Net Atomic Charges

     Atom                 Charge (a.u.)
  ----------------------------------------
      1 C                    -0.073663
      2 C                    -0.325032
      3 C                    -0.037459
      4 H                     0.175607
      5 C                     0.090309
      6 S                    -0.204779
      7 C                    -0.295813
      8 H                     0.122309
      9 H                     0.102707
     10 H                     0.115369
     11 C                    -0.114145
     12 C                    -0.218870
     13 C                     0.030300
     14 H                     0.196463
     15 C                    -0.197490
     16 S                     0.006062
     17 C                    -0.271118
     18 H                     0.103393
     19 H                     0.114468
     20 H                     0.107022
     21 H                     0.200780
     22 H                     0.105410
     23 H                     0.107556
     24 H                     0.160614
  ----------------------------------------
  Sum of atomic charges =     0.000000

                    Cartesian Multipole Moments
 -----------------------------------------------------------------
    Charge (ESU x 10^10)
                -0.0000
    Dipole Moment (Debye)
         X       4.2916      Y       0.9390      Z       3.3382
       Tot       5.5175
    Quadrupole Moments (Debye-Ang)
        XX     -84.6858     XY       2.8397     YY     -80.9816
        XZ       0.4062     YZ      -1.9380     ZZ     -85.9783

 Total job time:  708.33s(wall), 704.87s(cpu)
        *  Thank you very much for using Q-Chem.  Have a nice day.  *
