 Q-Chem 5.4, Q-Chem, Inc., Pleasanton, CA (2021)
 Q-Chem 5.4.0 for Intel X86 EM64T Linux

User input:
--------------------------------------------------------------
$molecule
0 1
C	-0.135301	-3.866725	0.763228
C	0.106073	-3.703963	-0.603311
C	0.185286	-2.357056	-1.050423
H	0.225783	-4.561092	-1.283188
C	-0.000000	-1.440664	-0.000000
S	-0.268187	-2.286957	1.521021
C	0.438209	-1.978743	-2.483507
H	0.550153	-2.878678	-3.118798
H	1.363906	-1.376015	-2.593381
H	-0.393798	-1.375728	-2.903516
C	0.000000	0.000000	0.000000
C	0.365003	0.782674	1.099446
C	0.949885	2.036912	0.776721
H	0.209135	0.448431	2.136088
C	1.043159	2.236886	-0.612546
S	0.398297	0.854094	-1.486809
C	1.409609	3.022738	1.814609
H	1.229726	2.636980	2.836676
H	0.877346	3.992870	1.726239
H	2.494910	3.238558	1.726228
H	1.444334	3.097160	-1.161575
H	0.688674	-4.392713	1.258111
H	-1.079084	-4.392347	0.946272
H	1.063572	-1.440937	0.187654
$end

$rem
JOBTYPE		SP
EXCHANGE	HF
CORRELATION	pRIMP2
BASIS		cc-pvtz
METHOD		rimp2
AUX_BASIS	rimp2-cc-pvtz
SOLVENT_METHOD	PCM
PURECART	11111
SYMMETRY	false
MEM_TOTAL	110000
SCF_CONVERGENCE = 6
THRESH=10
$end

$solvent
dielectric 4.90
$end
--------------------------------------------------------------

             Standard Nuclear Orientation (Angstroms)
    I     Atom           X                Y                Z
 ----------------------------------------------------------------
    1      C      -0.1353010000    -3.8667250000     0.7632280000
    2      C       0.1060730000    -3.7039630000    -0.6033110000
    3      C       0.1852860000    -2.3570560000    -1.0504230000
    4      H       0.2257830000    -4.5610920000    -1.2831880000
    5      C       0.0000000000    -1.4406640000     0.0000000000
    6      S      -0.2681870000    -2.2869570000     1.5210210000
    7      C       0.4382090000    -1.9787430000    -2.4835070000
    8      H       0.5501530000    -2.8786780000    -3.1187980000
    9      H       1.3639060000    -1.3760150000    -2.5933810000
   10      H      -0.3937980000    -1.3757280000    -2.9035160000
   11      C       0.0000000000     0.0000000000     0.0000000000
   12      C       0.3650030000     0.7826740000     1.0994460000
   13      C       0.9498850000     2.0369120000     0.7767210000
   14      H       0.2091350000     0.4484310000     2.1360880000
   15      C       1.0431590000     2.2368860000    -0.6125460000
   16      S       0.3982970000     0.8540940000    -1.4868090000
   17      C       1.4096090000     3.0227380000     1.8146090000
   18      H       1.2297260000     2.6369800000     2.8366760000
   19      H       0.8773460000     3.9928700000     1.7262390000
   20      H       2.4949100000     3.2385580000     1.7262280000
   21      H       1.4443340000     3.0971600000    -1.1615750000
   22      H       0.6886740000    -4.3927130000     1.2581110000
   23      H      -1.0790840000    -4.3923470000     0.9462720000
   24      H       1.0635720000    -1.4409370000     0.1876540000
 ----------------------------------------------------------------

   10   -1180.7449304692      4.91e-07  Convergence criterion met
 Total energy in the final basis set =    -1180.7449304692
        RIMP2         total energy =     -1182.7547983784 a.u.

                    Orbital Energies (a.u.)
 --------------------------------------------------------------

 Alpha MOs
 -- Occupied --
-91.9804 -91.9452 -11.2880 -11.2648 -11.2617 -11.2553 -11.2502 -11.2436
-11.2314 -11.2309 -11.2277 -11.2220  -8.9807  -8.9499  -6.6616  -6.6610
 -6.6603  -6.6313  -6.6303  -6.6290  -1.2038  -1.1522  -1.0610  -1.0283
 -1.0067  -0.9555  -0.9156  -0.9022  -0.8125  -0.7724  -0.7180  -0.7026
 -0.6628  -0.6477  -0.6114  -0.5890  -0.5829  -0.5720  -0.5685  -0.5540
 -0.5423  -0.5337  -0.5166  -0.5117  -0.4905  -0.4781  -0.4563  -0.4442
 -0.3581  -0.3412  -0.3266  -0.2633

          Ground-State Mulliken Net Atomic Charges

     Atom                 Charge (a.u.)
  ----------------------------------------
      1 C                    -0.074721
      2 C                    -0.316167
      3 C                    -0.049783
      4 H                     0.178687
      5 C                     0.098499
      6 S                    -0.189694
      7 C                    -0.304613
      8 H                     0.118045
      9 H                     0.113415
     10 H                     0.113104
     11 C                     0.005660
     12 C                    -0.314672
     13 C                     0.047470
     14 H                     0.177834
     15 C                    -0.279272
     16 S                     0.010057
     17 C                    -0.270276
     18 H                     0.102828
     19 H                     0.108658
     20 H                     0.107550
     21 H                     0.196589
     22 H                     0.111433
     23 H                     0.113466
     24 H                     0.195901
  ----------------------------------------
  Sum of atomic charges =     0.000000

                    Cartesian Multipole Moments
 -----------------------------------------------------------------
    Charge (ESU x 10^10)
                -0.0000
    Dipole Moment (Debye)
         X       1.9245      Y      -0.4417      Z      -0.9488
       Tot       2.1907
    Quadrupole Moments (Debye-Ang)
        XX     -89.9890     XY       1.7389     YY     -75.3417
        XZ       0.6351     YZ       4.1556     ZZ     -85.4254

 Total job time:  664.14s(wall), 659.44s(cpu)
        *  Thank you very much for using Q-Chem.  Have a nice day.  *
