 Q-Chem 5.4, Q-Chem, Inc., Pleasanton, CA (2021)
 Q-Chem 5.4.0 for Intel X86 EM64T Linux

User input:
--------------------------------------------------------------
$molecule
0 1
C	0.133897	-3.866725	0.763475
C	-0.106669	-3.703963	-0.603206
C	-0.185154	-2.357056	-1.050446
H	-0.226709	-4.561092	-1.283024
C	0.000000	-1.440664	0.000000
S	0.268206	-2.286957	1.521018
C	-0.437628	-1.978743	-2.483610
H	-0.549717	-2.878678	-3.118875
H	0.394664	-1.376015	-2.903464
H	-1.363110	-1.375728	-2.593726
C	0.000000	0.000000	0.000000
C	0.661577	0.555087	1.099446
C	1.721724	1.444630	0.776721
H	0.379056	0.318032	2.136088
C	1.890772	1.586449	-0.612546
S	0.721935	0.605744	-1.486809
C	2.555004	2.143805	1.814609
H	2.228946	1.870211	2.836676
H	2.482605	3.247987	1.726239
H	3.629830	1.880735	1.726228
H	2.617927	2.196579	-1.161575
H	1.077442	-4.392713	0.946698
H	-0.690363	-4.392347	1.258274
H	1.063612	-1.440937	-0.187427
$end

$rem
JOBTYPE		SP
EXCHANGE	HF
CORRELATION	pRIMP2
BASIS		cc-pvtz
METHOD		rimp2
AUX_BASIS	rimp2-cc-pvtz
SOLVENT_METHOD	PCM
PURECART	11111
SYMMETRY	false
MEM_TOTAL	110000
SCF_CONVERGENCE = 6
THRESH=10
$end

$solvent
dielectric 4.90
$end
--------------------------------------------------------------

             Standard Nuclear Orientation (Angstroms)
    I     Atom           X                Y                Z
 ----------------------------------------------------------------
    1      C       0.1338970000    -3.8667250000     0.7634750000
    2      C      -0.1066690000    -3.7039630000    -0.6032060000
    3      C      -0.1851540000    -2.3570560000    -1.0504460000
    4      H      -0.2267090000    -4.5610920000    -1.2830240000
    5      C       0.0000000000    -1.4406640000     0.0000000000
    6      S       0.2682060000    -2.2869570000     1.5210180000
    7      C      -0.4376280000    -1.9787430000    -2.4836100000
    8      H      -0.5497170000    -2.8786780000    -3.1188750000
    9      H       0.3946640000    -1.3760150000    -2.9034640000
   10      H      -1.3631100000    -1.3757280000    -2.5937260000
   11      C       0.0000000000     0.0000000000     0.0000000000
   12      C       0.6615770000     0.5550870000     1.0994460000
   13      C       1.7217240000     1.4446300000     0.7767210000
   14      H       0.3790560000     0.3180320000     2.1360880000
   15      C       1.8907720000     1.5864490000    -0.6125460000
   16      S       0.7219350000     0.6057440000    -1.4868090000
   17      C       2.5550040000     2.1438050000     1.8146090000
   18      H       2.2289460000     1.8702110000     2.8366760000
   19      H       2.4826050000     3.2479870000     1.7262390000
   20      H       3.6298300000     1.8807350000     1.7262280000
   21      H       2.6179270000     2.1965790000    -1.1615750000
   22      H       1.0774420000    -4.3927130000     0.9466980000
   23      H      -0.6903630000    -4.3923470000     1.2582740000
   24      H       1.0636120000    -1.4409370000    -0.1874270000
 ----------------------------------------------------------------

   10   -1180.7058787484      8.85e-07  Convergence criterion met
 Total energy in the final basis set =    -1180.7058787484
        RIMP2         total energy =     -1182.7263850924 a.u.

                    Orbital Energies (a.u.)
 --------------------------------------------------------------

 Alpha MOs
 -- Occupied --
-91.9756 -91.9423 -11.2743 -11.2715 -11.2596 -11.2582 -11.2526 -11.2433
-11.2404 -11.2291 -11.2289 -11.2191  -8.9773  -8.9470  -6.6580  -6.6573
 -6.6568  -6.6283  -6.6273  -6.6261  -1.2085  -1.1534  -1.0617  -1.0279
 -1.0063  -0.9560  -0.9143  -0.9038  -0.8086  -0.7746  -0.7215  -0.7028
 -0.6594  -0.6468  -0.6134  -0.5891  -0.5844  -0.5736  -0.5702  -0.5520
 -0.5420  -0.5359  -0.5173  -0.5136  -0.4881  -0.4659  -0.4557  -0.4376
 -0.3587  -0.3403  -0.3283  -0.2611

          Ground-State Mulliken Net Atomic Charges

     Atom                 Charge (a.u.)
  ----------------------------------------
      1 C                    -0.078767
      2 C                    -0.317984
      3 C                    -0.061243
      4 H                     0.176157
      5 C                     0.112014
      6 S                    -0.199630
      7 C                    -0.296881
      8 H                     0.114472
      9 H                     0.110264
     10 H                     0.117352
     11 C                    -0.046559
     12 C                    -0.253111
     13 C                     0.027798
     14 H                     0.182734
     15 C                    -0.235790
     16 S                     0.005762
     17 C                    -0.267523
     18 H                     0.103774
     19 H                     0.108658
     20 H                     0.107377
     21 H                     0.198666
     22 H                     0.110172
     23 H                     0.112441
     24 H                     0.169847
  ----------------------------------------
  Sum of atomic charges =     0.000000

                    Cartesian Multipole Moments
 -----------------------------------------------------------------
    Charge (ESU x 10^10)
                -0.0000
    Dipole Moment (Debye)
         X       2.0651      Y      -0.0547      Z      -0.9814
       Tot       2.2871
    Quadrupole Moments (Debye-Ang)
        XX     -85.0727     XY       4.8323     YY     -79.8637
        XZ       0.9949     YZ       4.4076     ZZ     -85.5284

 Total job time:  686.78s(wall), 681.98s(cpu)
        *  Thank you very much for using Q-Chem.  Have a nice day.  *
