 Q-Chem 5.4, Q-Chem, Inc., Pleasanton, CA (2021)
 Q-Chem 5.4.0 for Intel X86 EM64T Linux

User input:
--------------------------------------------------------------
$molecule
0 1
C	-0.594240	-3.866725	0.497696
C	0.469057	-3.703963	-0.393981
C	0.817136	-2.357056	-0.685571
H	0.997777	-4.561092	-0.837848
C	0.000000	-1.440664	0.000000
S	-1.183137	-2.286957	0.992782
C	1.932056	-1.978743	-1.620802
H	2.426166	-2.878678	-2.035506
H	2.711806	-1.376015	-1.109943
H	1.564678	-1.375728	-2.477350
C	0.000000	0.000000	0.000000
C	0.747916	0.431772	1.099446
C	1.946425	1.123709	0.776721
H	0.428523	0.247378	2.136088
C	2.137531	1.234018	-0.612546
S	0.816154	0.471179	-1.486809
C	2.888455	1.667564	1.814609
H	2.519842	1.454746	2.836676
H	3.008896	2.767543	1.726239
H	3.901271	1.221850	1.726228
H	2.959587	1.708609	-1.161575
H	-0.281143	-4.392713	1.406441
H	-1.434879	-4.392347	0.031265
H	0.694122	-1.440937	0.827402
$end

$rem
JOBTYPE		SP
EXCHANGE	HF
CORRELATION	pRIMP2
BASIS		cc-pvtz
METHOD		rimp2
AUX_BASIS	rimp2-cc-pvtz
SOLVENT_METHOD	PCM
PURECART	11111
SYMMETRY	false
MEM_TOTAL	110000
SCF_CONVERGENCE = 6
THRESH=10
$end

$solvent
dielectric 4.90
$end
--------------------------------------------------------------

             Standard Nuclear Orientation (Angstroms)
    I     Atom           X                Y                Z
 ----------------------------------------------------------------
    1      C      -0.5942400000    -3.8667250000     0.4976960000
    2      C       0.4690570000    -3.7039630000    -0.3939810000
    3      C       0.8171360000    -2.3570560000    -0.6855710000
    4      H       0.9977770000    -4.5610920000    -0.8378480000
    5      C       0.0000000000    -1.4406640000     0.0000000000
    6      S      -1.1831370000    -2.2869570000     0.9927820000
    7      C       1.9320560000    -1.9787430000    -1.6208020000
    8      H       2.4261660000    -2.8786780000    -2.0355060000
    9      H       2.7118060000    -1.3760150000    -1.1099430000
   10      H       1.5646780000    -1.3757280000    -2.4773500000
   11      C       0.0000000000     0.0000000000     0.0000000000
   12      C       0.7479160000     0.4317720000     1.0994460000
   13      C       1.9464250000     1.1237090000     0.7767210000
   14      H       0.4285230000     0.2473780000     2.1360880000
   15      C       2.1375310000     1.2340180000    -0.6125460000
   16      S       0.8161540000     0.4711790000    -1.4868090000
   17      C       2.8884550000     1.6675640000     1.8146090000
   18      H       2.5198420000     1.4547460000     2.8366760000
   19      H       3.0088960000     2.7675430000     1.7262390000
   20      H       3.9012710000     1.2218500000     1.7262280000
   21      H       2.9595870000     1.7086090000    -1.1615750000
   22      H      -0.2811430000    -4.3927130000     1.4064410000
   23      H      -1.4348790000    -4.3923470000     0.0312650000
   24      H       0.6941220000    -1.4409370000     0.8274020000
 ----------------------------------------------------------------

   11   -1180.6445358555      7.71e-07  Convergence criterion met
 Total energy in the final basis set =    -1180.6445358555
        RIMP2         total energy =     -1182.6805319289 a.u.

                    Orbital Energies (a.u.)
 --------------------------------------------------------------

 Alpha MOs
 -- Occupied --
-91.9813 -91.9321 -11.2842 -11.2601 -11.2555 -11.2543 -11.2528 -11.2477
-11.2362 -11.2312 -11.2239 -11.2129  -8.9828  -8.9372  -6.6632  -6.6626
 -6.6624  -6.6186  -6.6175  -6.6163  -1.2109  -1.1523  -1.0605  -1.0277
 -1.0097  -0.9560  -0.9085  -0.9067  -0.8034  -0.7694  -0.7398  -0.6993
 -0.6631  -0.6375  -0.6105  -0.5898  -0.5846  -0.5771  -0.5658  -0.5596
 -0.5430  -0.5265  -0.5208  -0.5135  -0.4927  -0.4524  -0.4469  -0.4348
 -0.3498  -0.3395  -0.3194  -0.2559

          Ground-State Mulliken Net Atomic Charges

     Atom                 Charge (a.u.)
  ----------------------------------------
      1 C                    -0.068713
      2 C                    -0.346760
      3 C                    -0.036353
      4 H                     0.175431
      5 C                     0.081806
      6 S                    -0.222707
      7 C                    -0.278541
      8 H                     0.108892
      9 H                     0.107628
     10 H                     0.118192
     11 C                    -0.157710
     12 C                    -0.144301
     13 C                    -0.015254
     14 H                     0.194127
     15 C                    -0.208404
     16 S                     0.048637
     17 C                    -0.267109
     18 H                     0.103763
     19 H                     0.108289
     20 H                     0.103458
     21 H                     0.202638
     22 H                     0.106351
     23 H                     0.108436
     24 H                     0.178204
  ----------------------------------------
  Sum of atomic charges =     0.000000

                    Cartesian Multipole Moments
 -----------------------------------------------------------------
    Charge (ESU x 10^10)
                -0.0000
    Dipole Moment (Debye)
         X       5.1223      Y       0.6640      Z       0.1318
       Tot       5.1668
    Quadrupole Moments (Debye-Ang)
        XX     -83.3230     XY       1.6486     YY     -85.0205
        XZ       0.4078     YZ       1.9593     ZZ     -84.2597

 Total job time:  788.77s(wall), 785.90s(cpu)
        *  Thank you very much for using Q-Chem.  Have a nice day.  *
