 Q-Chem 5.4, Q-Chem, Inc., Pleasanton, CA (2021)
 Q-Chem 5.4.0 for Intel X86 EM64T Linux

User input:
--------------------------------------------------------------
$molecule
0 1
C	0.000713	-3.866725	-0.775127
C	0.000302	-3.703963	0.612565
C	-0.000067	-2.357056	1.066639
H	0.000470	-4.561092	1.302900
C	0.000000	-1.440664	0.000000
S	-0.000009	-2.286957	-1.544483
C	-0.000295	-1.978743	2.521872
H	-0.000221	-2.878678	3.166949
H	-0.892850	-1.376015	2.790821
H	0.892005	-1.375728	2.791023
C	0.000000	0.000000	0.000000
C	0.223548	0.834165	1.099446
C	0.581748	2.170912	0.776721
H	0.128089	0.477934	2.136088
C	0.638880	2.384045	-0.612546
S	0.243934	0.910282	-1.486809
C	0.863301	3.221592	1.814609
H	0.753137	2.810458	2.836676
H	0.170663	4.084559	1.726239
H	1.894637	3.622593	1.726228
H	0.884575	3.300913	-1.161575
H	-0.896681	-4.392713	-1.119411
H	0.898372	-4.392347	-1.119277
H	-1.080000	-1.440937	-0.000115
$end

$rem
JOBTYPE		SP
EXCHANGE	HF
CORRELATION	pRIMP2
BASIS		cc-pvtz
METHOD		rimp2
AUX_BASIS	rimp2-cc-pvtz
SOLVENT_METHOD	PCM
PURECART	11111
SYMMETRY	false
MEM_TOTAL	110000
SCF_CONVERGENCE = 6
THRESH=10
$end

$solvent
dielectric 4.90
$end
--------------------------------------------------------------

             Standard Nuclear Orientation (Angstroms)
    I     Atom           X                Y                Z
 ----------------------------------------------------------------
    1      C       0.0007130000    -3.8667250000    -0.7751270000
    2      C       0.0003020000    -3.7039630000     0.6125650000
    3      C      -0.0000670000    -2.3570560000     1.0666390000
    4      H       0.0004700000    -4.5610920000     1.3029000000
    5      C       0.0000000000    -1.4406640000     0.0000000000
    6      S      -0.0000090000    -2.2869570000    -1.5444830000
    7      C      -0.0002950000    -1.9787430000     2.5218720000
    8      H      -0.0002210000    -2.8786780000     3.1669490000
    9      H      -0.8928500000    -1.3760150000     2.7908210000
   10      H       0.8920050000    -1.3757280000     2.7910230000
   11      C       0.0000000000     0.0000000000     0.0000000000
   12      C       0.2235480000     0.8341650000     1.0994460000
   13      C       0.5817480000     2.1709120000     0.7767210000
   14      H       0.1280890000     0.4779340000     2.1360880000
   15      C       0.6388800000     2.3840450000    -0.6125460000
   16      S       0.2439340000     0.9102820000    -1.4868090000
   17      C       0.8633010000     3.2215920000     1.8146090000
   18      H       0.7531370000     2.8104580000     2.8366760000
   19      H       0.1706630000     4.0845590000     1.7262390000
   20      H       1.8946370000     3.6225930000     1.7262280000
   21      H       0.8845750000     3.3009130000    -1.1615750000
   22      H      -0.8966810000    -4.3927130000    -1.1194110000
   23      H       0.8983720000    -4.3923470000    -1.1192770000
   24      H      -1.0800000000    -1.4409370000    -0.0001150000
 ----------------------------------------------------------------

   10   -1180.7496138712      5.12e-07  Convergence criterion met
 Total energy in the final basis set =    -1180.7496138712
        RIMP2         total energy =     -1182.7574018730 a.u.

                    Orbital Energies (a.u.)
 --------------------------------------------------------------

 Alpha MOs
 -- Occupied --
-91.9835 -91.9463 -11.2882 -11.2667 -11.2606 -11.2544 -11.2497 -11.2445
-11.2343 -11.2292 -11.2280 -11.2232  -8.9832  -8.9510  -6.6642  -6.6636
 -6.6630  -6.6324  -6.6314  -6.6301  -1.2024  -1.1522  -1.0603  -1.0325
 -1.0009  -0.9620  -0.9165  -0.8994  -0.8184  -0.7632  -0.7283  -0.7065
 -0.6565  -0.6483  -0.6100  -0.5946  -0.5860  -0.5685  -0.5616  -0.5503
 -0.5460  -0.5360  -0.5240  -0.5019  -0.4852  -0.4798  -0.4701  -0.4425
 -0.3615  -0.3435  -0.3237  -0.2627

          Ground-State Mulliken Net Atomic Charges

     Atom                 Charge (a.u.)
  ----------------------------------------
      1 C                    -0.074189
      2 C                    -0.315396
      3 C                    -0.052754
      4 H                     0.179344
      5 C                     0.136214
      6 S                    -0.179459
      7 C                    -0.304681
      8 H                     0.123165
      9 H                     0.106311
     10 H                     0.109958
     11 C                    -0.050484
     12 C                    -0.288300
     13 C                     0.045711
     14 H                     0.189103
     15 C                    -0.282935
     16 S                     0.008520
     17 C                    -0.272168
     18 H                     0.100379
     19 H                     0.108365
     20 H                     0.108462
     21 H                     0.196739
     22 H                     0.111855
     23 H                     0.114125
     24 H                     0.182115
  ----------------------------------------
  Sum of atomic charges =     0.000000

                    Cartesian Multipole Moments
 -----------------------------------------------------------------
    Charge (ESU x 10^10)
                -0.0000
    Dipole Moment (Debye)
         X      -0.5201      Y      -0.4692      Z       3.7617
       Tot       3.8264
    Quadrupole Moments (Debye-Ang)
        XX     -91.1234     XY       3.9489     YY     -73.5645
        XZ       0.5455     YZ      -2.3625     ZZ     -85.6384

 Total job time:  675.11s(wall), 667.23s(cpu)
        *  Thank you very much for using Q-Chem.  Have a nice day.  *
