 Q-Chem 5.4, Q-Chem, Inc., Pleasanton, CA (2021)
 Q-Chem 5.4.0 for Intel X86 EM64T Linux

User input:
--------------------------------------------------------------
$molecule
0 1
C	0.594240	-3.866725	-0.497696
C	-0.469057	-3.703963	0.393981
C	-0.817136	-2.357056	0.685571
H	-0.997777	-4.561092	0.837848
C	0.000000	-1.440664	0.000000
S	1.183137	-2.286957	-0.992782
C	-1.932056	-1.978743	1.620802
H	-2.426166	-2.878678	2.035506
H	-2.711806	-1.376015	1.109943
H	-1.564678	-1.375728	2.477350
C	0.000000	0.000000	0.000000
C	0.747916	0.431772	1.099446
C	1.946425	1.123709	0.776721
H	0.428523	0.247378	2.136088
C	2.137531	1.234018	-0.612546
S	0.816154	0.471179	-1.486809
C	2.888455	1.667564	1.814609
H	2.519842	1.454746	2.836676
H	3.008896	2.767543	1.726239
H	3.901271	1.221850	1.726228
H	2.959587	1.708609	-1.161575
H	0.281143	-4.392713	-1.406441
H	1.434879	-4.392347	-0.031265
H	-0.694122	-1.440937	-0.827402
$end

$rem
JOBTYPE		SP
EXCHANGE	HF
CORRELATION	pRIMP2
BASIS		cc-pvtz
METHOD		rimp2
AUX_BASIS	rimp2-cc-pvtz
SOLVENT_METHOD	PCM
PURECART	11111
SYMMETRY	false
MEM_TOTAL	110000
SCF_CONVERGENCE = 6
THRESH=10
$end

$solvent
dielectric 4.90
$end
--------------------------------------------------------------

             Standard Nuclear Orientation (Angstroms)
    I     Atom           X                Y                Z
 ----------------------------------------------------------------
    1      C       0.5942400000    -3.8667250000    -0.4976960000
    2      C      -0.4690570000    -3.7039630000     0.3939810000
    3      C      -0.8171360000    -2.3570560000     0.6855710000
    4      H      -0.9977770000    -4.5610920000     0.8378480000
    5      C       0.0000000000    -1.4406640000     0.0000000000
    6      S       1.1831370000    -2.2869570000    -0.9927820000
    7      C      -1.9320560000    -1.9787430000     1.6208020000
    8      H      -2.4261660000    -2.8786780000     2.0355060000
    9      H      -2.7118060000    -1.3760150000     1.1099430000
   10      H      -1.5646780000    -1.3757280000     2.4773500000
   11      C       0.0000000000     0.0000000000     0.0000000000
   12      C       0.7479160000     0.4317720000     1.0994460000
   13      C       1.9464250000     1.1237090000     0.7767210000
   14      H       0.4285230000     0.2473780000     2.1360880000
   15      C       2.1375310000     1.2340180000    -0.6125460000
   16      S       0.8161540000     0.4711790000    -1.4868090000
   17      C       2.8884550000     1.6675640000     1.8146090000
   18      H       2.5198420000     1.4547460000     2.8366760000
   19      H       3.0088960000     2.7675430000     1.7262390000
   20      H       3.9012710000     1.2218500000     1.7262280000
   21      H       2.9595870000     1.7086090000    -1.1615750000
   22      H       0.2811430000    -4.3927130000    -1.4064410000
   23      H       1.4348790000    -4.3923470000    -0.0312650000
   24      H      -0.6941220000    -1.4409370000    -0.8274020000
 ----------------------------------------------------------------

   10   -1180.6763274660      8.10e-07  Convergence criterion met
 Total energy in the final basis set =    -1180.6763274660
        RIMP2         total energy =     -1182.6990233693 a.u.

                    Orbital Energies (a.u.)
 --------------------------------------------------------------

 Alpha MOs
 -- Occupied --
-91.9818 -91.9314 -11.2903 -11.2594 -11.2560 -11.2524 -11.2467 -11.2452
-11.2315 -11.2302 -11.2294 -11.2105  -8.9829  -8.9365  -6.6636  -6.6628
 -6.6626  -6.6178  -6.6167  -6.6154  -1.2042  -1.1528  -1.0573  -1.0274
 -0.9983  -0.9662  -0.9066  -0.9019  -0.8113  -0.7544  -0.7485  -0.7045
 -0.6485  -0.6282  -0.6144  -0.5901  -0.5814  -0.5712  -0.5646  -0.5508
 -0.5413  -0.5339  -0.5103  -0.5048  -0.4864  -0.4764  -0.4521  -0.4355
 -0.3535  -0.3317  -0.3216  -0.2607

          Ground-State Mulliken Net Atomic Charges

     Atom                 Charge (a.u.)
  ----------------------------------------
      1 C                    -0.091479
      2 C                    -0.330587
      3 C                    -0.075186
      4 H                     0.171109
      5 C                     0.070431
      6 S                    -0.182969
      7 C                    -0.275977
      8 H                     0.112508
      9 H                     0.103821
     10 H                     0.101952
     11 C                    -0.182833
     12 C                    -0.081415
     13 C                    -0.027943
     14 H                     0.200338
     15 C                    -0.160039
     16 S                     0.023319
     17 C                    -0.269662
     18 H                     0.101967
     19 H                     0.107554
     20 H                     0.106665
     21 H                     0.203625
     22 H                     0.103320
     23 H                     0.106192
     24 H                     0.165287
  ----------------------------------------
  Sum of atomic charges =     0.000000

                    Cartesian Multipole Moments
 -----------------------------------------------------------------
    Charge (ESU x 10^10)
                -0.0000
    Dipole Moment (Debye)
         X       0.6538      Y       1.2181      Z       2.4312
       Tot       2.7967
    Quadrupole Moments (Debye-Ang)
        XX     -82.4775     XY       9.4740     YY     -85.0936
        XZ       0.2000     YZ      -0.8847     ZZ     -84.5362

 Total job time:  718.44s(wall), 696.05s(cpu)
        *  Thank you very much for using Q-Chem.  Have a nice day.  *
