 Q-Chem 5.4, Q-Chem, Inc., Pleasanton, CA (2021)
 Q-Chem 5.4.0 for Intel X86 EM64T Linux

User input:
--------------------------------------------------------------
$molecule
0 1
C	0.594240	-3.866725	-0.497696
C	-0.469057	-3.703963	0.393981
C	-0.817136	-2.357056	0.685571
H	-0.997777	-4.561092	0.837848
C	0.000000	-1.440664	0.000000
S	1.183137	-2.286957	-0.992782
C	-1.932056	-1.978743	1.620802
H	-2.426166	-2.878678	2.035506
H	-2.711806	-1.376015	1.109943
H	-1.564678	-1.375728	2.477350
C	0.000000	0.000000	0.000000
C	0.661577	0.555087	1.099446
C	1.721724	1.444630	0.776721
H	0.379056	0.318032	2.136088
C	1.890772	1.586449	-0.612546
S	0.721935	0.605744	-1.486809
C	2.555004	2.143805	1.814609
H	2.228946	1.870211	2.836676
H	2.482605	3.247987	1.726239
H	3.629830	1.880735	1.726228
H	2.617927	2.196579	-1.161575
H	0.281143	-4.392713	-1.406441
H	1.434879	-4.392347	-0.031265
H	0.694122	-1.440391	0.827402
$end

$rem
JOBTYPE		SP
EXCHANGE	HF
CORRELATION	pRIMP2
BASIS		cc-pvtz
METHOD		rimp2
AUX_BASIS	rimp2-cc-pvtz
SOLVENT_METHOD	PCM
PURECART	11111
SYMMETRY	false
MEM_TOTAL	110000
SCF_CONVERGENCE = 6
THRESH=10
$end

$solvent
dielectric 4.90
$end
--------------------------------------------------------------

             Standard Nuclear Orientation (Angstroms)
    I     Atom           X                Y                Z
 ----------------------------------------------------------------
    1      C       0.5942400000    -3.8667250000    -0.4976960000
    2      C      -0.4690570000    -3.7039630000     0.3939810000
    3      C      -0.8171360000    -2.3570560000     0.6855710000
    4      H      -0.9977770000    -4.5610920000     0.8378480000
    5      C       0.0000000000    -1.4406640000     0.0000000000
    6      S       1.1831370000    -2.2869570000    -0.9927820000
    7      C      -1.9320560000    -1.9787430000     1.6208020000
    8      H      -2.4261660000    -2.8786780000     2.0355060000
    9      H      -2.7118060000    -1.3760150000     1.1099430000
   10      H      -1.5646780000    -1.3757280000     2.4773500000
   11      C       0.0000000000     0.0000000000     0.0000000000
   12      C       0.6615770000     0.5550870000     1.0994460000
   13      C       1.7217240000     1.4446300000     0.7767210000
   14      H       0.3790560000     0.3180320000     2.1360880000
   15      C       1.8907720000     1.5864490000    -0.6125460000
   16      S       0.7219350000     0.6057440000    -1.4868090000
   17      C       2.5550040000     2.1438050000     1.8146090000
   18      H       2.2289460000     1.8702110000     2.8366760000
   19      H       2.4826050000     3.2479870000     1.7262390000
   20      H       3.6298300000     1.8807350000     1.7262280000
   21      H       2.6179270000     2.1965790000    -1.1615750000
   22      H       0.2811430000    -4.3927130000    -1.4064410000
   23      H       1.4348790000    -4.3923470000    -0.0312650000
   24      H       0.6941220000    -1.4403910000     0.8274020000
 ----------------------------------------------------------------

   11   -1180.6965735618      5.03e-07  Convergence criterion met
 Total energy in the final basis set =    -1180.6965735618
        RIMP2         total energy =     -1182.7170760716 a.u.

                    Orbital Energies (a.u.)
 --------------------------------------------------------------

 Alpha MOs
 -- Occupied --
-91.9834 -91.9384 -11.2756 -11.2657 -11.2563 -11.2526 -11.2491 -11.2474
-11.2350 -11.2307 -11.2303 -11.2110  -8.9835  -8.9430  -6.6643  -6.6636
 -6.6633  -6.6243  -6.6233  -6.6220  -1.2044  -1.1523  -1.0580  -1.0281
 -1.0022  -0.9607  -0.9080  -0.9023  -0.8132  -0.7559  -0.7367  -0.7002
 -0.6616  -0.6401  -0.6094  -0.5875  -0.5846  -0.5711  -0.5619  -0.5530
 -0.5393  -0.5326  -0.5128  -0.5062  -0.4890  -0.4759  -0.4586  -0.4385
 -0.3535  -0.3399  -0.3206  -0.2590

          Ground-State Mulliken Net Atomic Charges

     Atom                 Charge (a.u.)
  ----------------------------------------
      1 C                    -0.085593
      2 C                    -0.338341
      3 C                    -0.056732
      4 H                     0.171679
      5 C                     0.079467
      6 S                    -0.174518
      7 C                    -0.276640
      8 H                     0.114040
      9 H                     0.108045
     10 H                     0.099700
     11 C                    -0.110495
     12 C                    -0.177479
     13 C                    -0.004049
     14 H                     0.191740
     15 C                    -0.208335
     16 S                     0.025610
     17 C                    -0.268634
     18 H                     0.101554
     19 H                     0.108141
     20 H                     0.106819
     21 H                     0.199928
     22 H                     0.106931
     23 H                     0.107043
     24 H                     0.180116
  ----------------------------------------
  Sum of atomic charges =     0.000000

                    Cartesian Multipole Moments
 -----------------------------------------------------------------
    Charge (ESU x 10^10)
                -0.0000
    Dipole Moment (Debye)
         X       0.6956      Y       0.8287      Z       3.4766
       Tot       3.6411
    Quadrupole Moments (Debye-Ang)
        XX     -84.5417     XY       7.4038     YY     -82.6475
        XZ       0.5862     YZ      -2.5945     ZZ     -85.4155

 Total job time:  721.86s(wall), 717.47s(cpu)
        *  Thank you very much for using Q-Chem.  Have a nice day.  *
