 Q-Chem 5.4, Q-Chem, Inc., Pleasanton, CA (2021)
 Q-Chem 5.4.0 for Intel X86 EM64T Linux

User input:
--------------------------------------------------------------
$molecule
0 1
C	0.497696	-3.866725	0.594240
C	-0.393981	-3.703963	-0.469057
C	-0.685571	-2.357056	-0.817136
H	-0.837848	-4.561092	-0.997777
C	0.000000	-1.440664	0.000000
S	0.992782	-2.286957	1.183137
C	-1.620802	-1.978743	-1.932056
H	-2.035506	-2.878678	-2.426166
H	-1.109943	-1.376015	-2.711806
H	-2.477350	-1.375728	-1.564678
C	0.000000	0.000000	0.000000
C	0.661577	0.555087	1.099446
C	1.721724	1.444630	0.776721
H	0.379056	0.318032	2.136088
C	1.890772	1.586449	-0.612546
S	0.721935	0.605744	-1.486809
C	2.555004	2.143805	1.814609
H	2.228946	1.870211	2.836676
H	2.482605	3.247987	1.726239
H	3.629830	1.880735	1.726228
H	2.617927	2.196579	-1.161575
H	1.406441	-4.392713	0.281143
H	0.031265	-4.392347	1.434879
H	0.827402	-1.440937	-0.694122
$end

$rem
JOBTYPE		SP
EXCHANGE	HF
CORRELATION	pRIMP2
BASIS		cc-pvtz
METHOD		rimp2
AUX_BASIS	rimp2-cc-pvtz
SOLVENT_METHOD	PCM
PURECART	11111
SYMMETRY	false
MEM_TOTAL	110000
SCF_CONVERGENCE = 6
THRESH=10
$end

$solvent
dielectric 4.90
$end
--------------------------------------------------------------

             Standard Nuclear Orientation (Angstroms)
    I     Atom           X                Y                Z
 ----------------------------------------------------------------
    1      C       0.4976960000    -3.8667250000     0.5942400000
    2      C      -0.3939810000    -3.7039630000    -0.4690570000
    3      C      -0.6855710000    -2.3570560000    -0.8171360000
    4      H      -0.8378480000    -4.5610920000    -0.9977770000
    5      C       0.0000000000    -1.4406640000     0.0000000000
    6      S       0.9927820000    -2.2869570000     1.1831370000
    7      C      -1.6208020000    -1.9787430000    -1.9320560000
    8      H      -2.0355060000    -2.8786780000    -2.4261660000
    9      H      -1.1099430000    -1.3760150000    -2.7118060000
   10      H      -2.4773500000    -1.3757280000    -1.5646780000
   11      C       0.0000000000     0.0000000000     0.0000000000
   12      C       0.6615770000     0.5550870000     1.0994460000
   13      C       1.7217240000     1.4446300000     0.7767210000
   14      H       0.3790560000     0.3180320000     2.1360880000
   15      C       1.8907720000     1.5864490000    -0.6125460000
   16      S       0.7219350000     0.6057440000    -1.4868090000
   17      C       2.5550040000     2.1438050000     1.8146090000
   18      H       2.2289460000     1.8702110000     2.8366760000
   19      H       2.4826050000     3.2479870000     1.7262390000
   20      H       3.6298300000     1.8807350000     1.7262280000
   21      H       2.6179270000     2.1965790000    -1.1615750000
   22      H       1.4064410000    -4.3927130000     0.2811430000
   23      H       0.0312650000    -4.3923470000     1.4348790000
   24      H       0.8274020000    -1.4409370000    -0.6941220000
 ----------------------------------------------------------------

   10   -1180.7059806731      7.30e-07  Convergence criterion met
 Total energy in the final basis set =    -1180.7059806731
        RIMP2         total energy =     -1182.7232324593 a.u.

                    Orbital Energies (a.u.)
 --------------------------------------------------------------

 Alpha MOs
 -- Occupied --
-91.9761 -91.9402 -11.2756 -11.2699 -11.2566 -11.2525 -11.2510 -11.2498
-11.2380 -11.2312 -11.2295 -11.2165  -8.9778  -8.9448  -6.6586  -6.6578
 -6.6574  -6.6261  -6.6251  -6.6238  -1.2065  -1.1535  -1.0608  -1.0260
 -1.0052  -0.9590  -0.9142  -0.9011  -0.8086  -0.7718  -0.7296  -0.7032
 -0.6533  -0.6399  -0.6133  -0.5897  -0.5797  -0.5758  -0.5690  -0.5518
 -0.5421  -0.5356  -0.5155  -0.5084  -0.4866  -0.4670  -0.4624  -0.4398
 -0.3551  -0.3446  -0.3261  -0.2602

          Ground-State Mulliken Net Atomic Charges

     Atom                 Charge (a.u.)
  ----------------------------------------
      1 C                    -0.083987
      2 C                    -0.318806
      3 C                    -0.072090
      4 H                     0.174121
      5 C                     0.108486
      6 S                    -0.190282
      7 C                    -0.283674
      8 H                     0.115528
      9 H                     0.105354
     10 H                     0.109597
     11 C                    -0.068837
     12 C                    -0.242974
     13 C                     0.029736
     14 H                     0.192109
     15 C                    -0.215053
     16 S                    -0.004705
     17 C                    -0.267835
     18 H                     0.103604
     19 H                     0.109466
     20 H                     0.108225
     21 H                     0.199266
     22 H                     0.108953
     23 H                     0.107763
     24 H                     0.176034
  ----------------------------------------
  Sum of atomic charges =     0.000000

                    Cartesian Multipole Moments
 -----------------------------------------------------------------
    Charge (ESU x 10^10)
                -0.0000
    Dipole Moment (Debye)
         X       0.9116      Y       0.4024      Z      -0.5580
       Tot       1.1421
    Quadrupole Moments (Debye-Ang)
        XX     -84.4639     XY       7.0225     YY     -80.7663
        XZ       0.8628     YZ       4.5484     ZZ     -85.9414

 Total job time:  668.31s(wall), 665.14s(cpu)
        *  Thank you very much for using Q-Chem.  Have a nice day.  *
