 Q-Chem 5.4, Q-Chem, Inc., Pleasanton, CA (2021)
 Q-Chem 5.4.0 for Intel X86 EM64T Linux

User input:
--------------------------------------------------------------
$molecule
0 1
C	0.000713	-3.866725	-0.775127
C	0.000302	-3.703963	0.612565
C	-0.000067	-2.357056	1.066639
H	0.000470	-4.561092	1.302900
C	-0.000000	-1.440664	-0.000000
S	-0.000009	-2.286957	-1.544483
C	-0.000295	-1.978743	2.521872
H	-0.000221	-2.878678	3.166949
H	-0.892850	-1.376015	2.790821
H	0.892005	-1.375728	2.791023
C	0.000000	0.000000	0.000000
C	0.365003	0.782674	1.099446
C	0.949885	2.036912	0.776721
H	0.209135	0.448431	2.136088
C	1.043159	2.236886	-0.612546
S	0.398297	0.854094	-1.486809
C	1.409609	3.022738	1.814609
H	1.229726	2.636980	2.836676
H	0.877346	3.992870	1.726239
H	2.494910	3.238558	1.726228
H	1.444334	3.097160	-1.161575
H	-0.896681	-4.392713	-1.119411
H	0.898372	-4.392347	-1.119277
H	1.080000	-1.440391	0.000115
$end

$rem
JOBTYPE		SP
EXCHANGE	HF
CORRELATION	pRIMP2
BASIS		cc-pvtz
METHOD		rimp2
AUX_BASIS	rimp2-cc-pvtz
SOLVENT_METHOD	PCM
PURECART	11111
SYMMETRY	false
MEM_TOTAL	110000
SCF_CONVERGENCE = 6
THRESH=10
$end

$solvent
dielectric 4.90
$end
--------------------------------------------------------------

             Standard Nuclear Orientation (Angstroms)
    I     Atom           X                Y                Z
 ----------------------------------------------------------------
    1      C       0.0007130000    -3.8667250000    -0.7751270000
    2      C       0.0003020000    -3.7039630000     0.6125650000
    3      C      -0.0000670000    -2.3570560000     1.0666390000
    4      H       0.0004700000    -4.5610920000     1.3029000000
    5      C       0.0000000000    -1.4406640000     0.0000000000
    6      S      -0.0000090000    -2.2869570000    -1.5444830000
    7      C      -0.0002950000    -1.9787430000     2.5218720000
    8      H      -0.0002210000    -2.8786780000     3.1669490000
    9      H      -0.8928500000    -1.3760150000     2.7908210000
   10      H       0.8920050000    -1.3757280000     2.7910230000
   11      C       0.0000000000     0.0000000000     0.0000000000
   12      C       0.3650030000     0.7826740000     1.0994460000
   13      C       0.9498850000     2.0369120000     0.7767210000
   14      H       0.2091350000     0.4484310000     2.1360880000
   15      C       1.0431590000     2.2368860000    -0.6125460000
   16      S       0.3982970000     0.8540940000    -1.4868090000
   17      C       1.4096090000     3.0227380000     1.8146090000
   18      H       1.2297260000     2.6369800000     2.8366760000
   19      H       0.8773460000     3.9928700000     1.7262390000
   20      H       2.4949100000     3.2385580000     1.7262280000
   21      H       1.4443340000     3.0971600000    -1.1615750000
   22      H      -0.8966810000    -4.3927130000    -1.1194110000
   23      H       0.8983720000    -4.3923470000    -1.1192770000
   24      H       1.0800000000    -1.4403910000     0.0001150000
 ----------------------------------------------------------------

   10   -1180.7462106794      4.93e-07  Convergence criterion met
 Total energy in the final basis set =    -1180.7462106794
        RIMP2         total energy =     -1182.7553427820 a.u.

                    Orbital Energies (a.u.)
 --------------------------------------------------------------

 Alpha MOs
 -- Occupied --
-91.9831 -91.9442 -11.2882 -11.2656 -11.2624 -11.2554 -11.2501 -11.2439
-11.2341 -11.2283 -11.2281 -11.2240  -8.9830  -8.9491  -6.6639  -6.6633
 -6.6627  -6.6305  -6.6294  -6.6282  -1.2041  -1.1523  -1.0607  -1.0327
 -1.0000  -0.9617  -0.9161  -0.8996  -0.8168  -0.7633  -0.7281  -0.7053
 -0.6591  -0.6488  -0.6109  -0.5942  -0.5852  -0.5695  -0.5592  -0.5529
 -0.5453  -0.5366  -0.5244  -0.5026  -0.4832  -0.4817  -0.4685  -0.4411
 -0.3615  -0.3437  -0.3238  -0.2628

          Ground-State Mulliken Net Atomic Charges

     Atom                 Charge (a.u.)
  ----------------------------------------
      1 C                    -0.078553
      2 C                    -0.300085
      3 C                    -0.074638
      4 H                     0.178642
      5 C                     0.118589
      6 S                    -0.183723
      7 C                    -0.301336
      8 H                     0.121075
      9 H                     0.111683
     10 H                     0.104165
     11 C                     0.000328
     12 C                    -0.323004
     13 C                     0.057009
     14 H                     0.186512
     15 C                    -0.287930
     16 S                     0.009449
     17 C                    -0.270822
     18 H                     0.100747
     19 H                     0.108821
     20 H                     0.107959
     21 H                     0.197112
     22 H                     0.112872
     23 H                     0.112247
     24 H                     0.192883
  ----------------------------------------
  Sum of atomic charges =     0.000000

                    Cartesian Multipole Moments
 -----------------------------------------------------------------
    Charge (ESU x 10^10)
                -0.0000
    Dipole Moment (Debye)
         X       1.4899      Y      -0.5601      Z       3.7882
       Tot       4.1090
    Quadrupole Moments (Debye-Ang)
        XX     -89.9202     XY       2.3134     YY     -74.6551
        XZ       0.2215     YZ      -2.5779     ZZ     -85.7286

 Total job time:  668.17s(wall), 665.49s(cpu)
        *  Thank you very much for using Q-Chem.  Have a nice day.  *
