 Q-Chem 5.4, Q-Chem, Inc., Pleasanton, CA (2021)
 Q-Chem 5.4.0 for Intel X86 EM64T Linux

User input:
--------------------------------------------------------------
$molecule
0 1
C	-0.763228	-3.866725	-0.135301
C	0.603311	-3.703963	0.106073
C	1.050423	-2.357056	0.185286
H	1.283188	-4.561092	0.225783
C	0.000000	-1.440664	0.000000
S	-1.521021	-2.286957	-0.268187
C	2.483507	-1.978743	0.438209
H	3.118798	-2.878678	0.550153
H	2.593381	-1.376015	1.363906
H	2.903516	-1.375728	-0.393798
C	0.000000	0.000000	0.000000
C	0.661577	0.555087	1.099446
C	1.721724	1.444630	0.776721
H	0.379056	0.318032	2.136088
C	1.890772	1.586449	-0.612546
S	0.721935	0.605744	-1.486809
C	2.555004	2.143805	1.814609
H	2.228946	1.870211	2.836676
H	2.482605	3.247987	1.726239
H	3.629830	1.880735	1.726228
H	2.617927	2.196579	-1.161575
H	-1.258111	-4.392713	0.688674
H	-0.946272	-4.392347	-1.079084
H	0.187654	-1.440391	-1.063572
$end

$rem
JOBTYPE		SP
EXCHANGE	HF
CORRELATION	pRIMP2
BASIS		cc-pvtz
METHOD		rimp2
AUX_BASIS	rimp2-cc-pvtz
SOLVENT_METHOD	PCM
PURECART	11111
SYMMETRY	false
MEM_TOTAL	110000
SCF_CONVERGENCE = 6
THRESH=10
$end

$solvent
dielectric 4.90
$end
--------------------------------------------------------------

             Standard Nuclear Orientation (Angstroms)
    I     Atom           X                Y                Z
 ----------------------------------------------------------------
    1      C      -0.7632280000    -3.8667250000    -0.1353010000
    2      C       0.6033110000    -3.7039630000     0.1060730000
    3      C       1.0504230000    -2.3570560000     0.1852860000
    4      H       1.2831880000    -4.5610920000     0.2257830000
    5      C       0.0000000000    -1.4406640000     0.0000000000
    6      S      -1.5210210000    -2.2869570000    -0.2681870000
    7      C       2.4835070000    -1.9787430000     0.4382090000
    8      H       3.1187980000    -2.8786780000     0.5501530000
    9      H       2.5933810000    -1.3760150000     1.3639060000
   10      H       2.9035160000    -1.3757280000    -0.3937980000
   11      C       0.0000000000     0.0000000000     0.0000000000
   12      C       0.6615770000     0.5550870000     1.0994460000
   13      C       1.7217240000     1.4446300000     0.7767210000
   14      H       0.3790560000     0.3180320000     2.1360880000
   15      C       1.8907720000     1.5864490000    -0.6125460000
   16      S       0.7219350000     0.6057440000    -1.4868090000
   17      C       2.5550040000     2.1438050000     1.8146090000
   18      H       2.2289460000     1.8702110000     2.8366760000
   19      H       2.4826050000     3.2479870000     1.7262390000
   20      H       3.6298300000     1.8807350000     1.7262280000
   21      H       2.6179270000     2.1965790000    -1.1615750000
   22      H      -1.2581110000    -4.3927130000     0.6886740000
   23      H      -0.9462720000    -4.3923470000    -1.0790840000
   24      H       0.1876540000    -1.4403910000    -1.0635720000
 ----------------------------------------------------------------

   10   -1180.7028203652      7.88e-07  Convergence criterion met
 Total energy in the final basis set =    -1180.7028203652
        RIMP2         total energy =     -1182.7216375307 a.u.

                    Orbital Energies (a.u.)
 --------------------------------------------------------------

 Alpha MOs
 -- Occupied --
-91.9814 -91.9321 -11.2825 -11.2593 -11.2586 -11.2561 -11.2519 -11.2480
-11.2358 -11.2310 -11.2291 -11.2152  -8.9824  -8.9371  -6.6632  -6.6624
 -6.6620  -6.6185  -6.6175  -6.6162  -1.2033  -1.1538  -1.0597  -1.0238
 -1.0020  -0.9666  -0.9117  -0.9001  -0.8050  -0.7626  -0.7489  -0.7077
 -0.6495  -0.6290  -0.6145  -0.5872  -0.5784  -0.5753  -0.5685  -0.5544
 -0.5432  -0.5268  -0.5219  -0.5041  -0.4879  -0.4689  -0.4562  -0.4398
 -0.3522  -0.3443  -0.3170  -0.2701

          Ground-State Mulliken Net Atomic Charges

     Atom                 Charge (a.u.)
  ----------------------------------------
      1 C                    -0.073610
      2 C                    -0.333852
      3 C                    -0.032941
      4 H                     0.174406
      5 C                     0.092978
      6 S                    -0.212857
      7 C                    -0.298224
      8 H                     0.122905
      9 H                     0.108884
     10 H                     0.109718
     11 C                    -0.116196
     12 C                    -0.212603
     13 C                     0.036594
     14 H                     0.195030
     15 C                    -0.206688
     16 S                     0.008267
     17 C                    -0.270599
     18 H                     0.104036
     19 H                     0.113675
     20 H                     0.105578
     21 H                     0.201761
     22 H                     0.107486
     23 H                     0.105500
     24 H                     0.170751
  ----------------------------------------
  Sum of atomic charges =     0.000000

                    Cartesian Multipole Moments
 -----------------------------------------------------------------
    Charge (ESU x 10^10)
                -0.0000
    Dipole Moment (Debye)
         X       4.8329      Y       1.0688      Z       1.3964
       Tot       5.1429
    Quadrupole Moments (Debye-Ang)
        XX     -85.2982     XY       1.7716     YY     -81.6877
        XZ       0.7253     YZ       1.2713     ZZ     -85.2275

 Total job time:  710.46s(wall), 707.51s(cpu)
        *  Thank you very much for using Q-Chem.  Have a nice day.  *
