 Q-Chem 5.4, Q-Chem, Inc., Pleasanton, CA (2021)
 Q-Chem 5.4.0 for Intel X86 EM64T Linux

User input:
--------------------------------------------------------------
$molecule
0 1
C	-0.763228	-3.866725	-0.135301
C	0.603311	-3.703963	0.106073
C	1.050423	-2.357056	0.185286
H	1.283188	-4.561092	0.225783
C	0.000000	-1.440664	0.000000
S	-1.521021	-2.286957	-0.268187
C	2.483507	-1.978743	0.438209
H	3.118798	-2.878678	0.550153
H	2.593381	-1.376015	1.363906
H	2.903516	-1.375728	-0.393798
C	0.000000	0.000000	0.000000
C	0.431829	0.747884	1.099446
C	1.123799	1.946373	0.776721
H	0.247423	0.428497	2.136088
C	1.234147	2.137457	-0.612546
S	0.471221	0.816130	-1.486809
C	1.667694	2.888380	1.814609
H	1.454874	2.519768	2.836676
H	1.222009	3.901210	1.726239
H	2.767675	3.008788	1.726228
H	1.708773	2.959493	-1.161575
H	-1.258111	-4.392713	0.688674
H	-0.946272	-4.392347	-1.079084
H	-0.187654	-1.440937	1.063572
$end

$rem
JOBTYPE		SP
EXCHANGE	HF
CORRELATION	pRIMP2
BASIS		cc-pvtz
METHOD		rimp2
AUX_BASIS	rimp2-cc-pvtz
SOLVENT_METHOD	PCM
PURECART	11111
SYMMETRY	false
MEM_TOTAL	110000
SCF_CONVERGENCE = 6
THRESH=10
$end

$solvent
dielectric 4.90
$end
--------------------------------------------------------------

             Standard Nuclear Orientation (Angstroms)
    I     Atom           X                Y                Z
 ----------------------------------------------------------------
    1      C      -0.7632280000    -3.8667250000    -0.1353010000
    2      C       0.6033110000    -3.7039630000     0.1060730000
    3      C       1.0504230000    -2.3570560000     0.1852860000
    4      H       1.2831880000    -4.5610920000     0.2257830000
    5      C       0.0000000000    -1.4406640000     0.0000000000
    6      S      -1.5210210000    -2.2869570000    -0.2681870000
    7      C       2.4835070000    -1.9787430000     0.4382090000
    8      H       3.1187980000    -2.8786780000     0.5501530000
    9      H       2.5933810000    -1.3760150000     1.3639060000
   10      H       2.9035160000    -1.3757280000    -0.3937980000
   11      C       0.0000000000     0.0000000000     0.0000000000
   12      C       0.4318290000     0.7478840000     1.0994460000
   13      C       1.1237990000     1.9463730000     0.7767210000
   14      H       0.2474230000     0.4284970000     2.1360880000
   15      C       1.2341470000     2.1374570000    -0.6125460000
   16      S       0.4712210000     0.8161300000    -1.4868090000
   17      C       1.6676940000     2.8883800000     1.8146090000
   18      H       1.4548740000     2.5197680000     2.8366760000
   19      H       1.2220090000     3.9012100000     1.7262390000
   20      H       2.7676750000     3.0087880000     1.7262280000
   21      H       1.7087730000     2.9594930000    -1.1615750000
   22      H      -1.2581110000    -4.3927130000     0.6886740000
   23      H      -0.9462720000    -4.3923470000    -1.0790840000
   24      H      -0.1876540000    -1.4409370000     1.0635720000
 ----------------------------------------------------------------

   10   -1180.7469253809      5.89e-07  Convergence criterion met
 Total energy in the final basis set =    -1180.7469253809
        RIMP2         total energy =     -1182.7566919792 a.u.

                    Orbital Energies (a.u.)
 --------------------------------------------------------------

 Alpha MOs
 -- Occupied --
-91.9797 -91.9371 -11.2739 -11.2718 -11.2620 -11.2536 -11.2521 -11.2495
-11.2389 -11.2307 -11.2304 -11.2185  -8.9799  -8.9420  -6.6608  -6.6602
 -6.6597  -6.6234  -6.6224  -6.6211  -1.1987  -1.1543  -1.0581  -1.0247
 -1.0060  -0.9614  -0.9109  -0.9019  -0.8127  -0.7602  -0.7385  -0.7038
 -0.6588  -0.6398  -0.6110  -0.5902  -0.5808  -0.5726  -0.5653  -0.5516
 -0.5414  -0.5281  -0.5191  -0.5055  -0.4905  -0.4719  -0.4597  -0.4457
 -0.3535  -0.3425  -0.3140  -0.2798

          Ground-State Mulliken Net Atomic Charges

     Atom                 Charge (a.u.)
  ----------------------------------------
      1 C                    -0.076046
      2 C                    -0.325472
      3 C                    -0.023679
      4 H                     0.176015
      5 C                     0.066669
      6 S                    -0.187760
      7 C                    -0.271511
      8 H                     0.116123
      9 H                     0.100476
     10 H                     0.111302
     11 C                    -0.053697
     12 C                    -0.272233
     13 C                     0.043988
     14 H                     0.186453
     15 C                    -0.228506
     16 S                     0.003695
     17 C                    -0.269535
     18 H                     0.102377
     19 H                     0.108812
     20 H                     0.107555
     21 H                     0.198502
     22 H                     0.108615
     23 H                     0.109625
     24 H                     0.168231
  ----------------------------------------
  Sum of atomic charges =     0.000000

                    Cartesian Multipole Moments
 -----------------------------------------------------------------
    Charge (ESU x 10^10)
                -0.0000
    Dipole Moment (Debye)
         X       3.4345      Y       0.8266      Z       2.7977
       Tot       4.5062
    Quadrupole Moments (Debye-Ang)
        XX     -89.0260     XY       1.3790     YY     -76.5850
        XZ       0.2034     YZ      -1.0829     ZZ     -86.0658

 Total job time:  668.88s(wall), 664.13s(cpu)
        *  Thank you very much for using Q-Chem.  Have a nice day.  *
