 Q-Chem 5.4, Q-Chem, Inc., Pleasanton, CA (2021)
 Q-Chem 5.4.0 for Intel X86 EM64T Linux

User input:
--------------------------------------------------------------
$molecule
0 1
C	-0.386946	-3.866725	-0.671636
C	0.306544	-3.703963	0.530345
C	0.533261	-2.357056	0.923770
H	0.651857	-4.561092	1.128109
C	-0.000000	-1.440664	-0.000000
S	-0.772250	-2.286957	-1.337557
C	1.260680	-1.978743	2.184153
H	1.583283	-2.878678	2.742769
H	0.622180	-1.376015	2.863347
H	2.168011	-1.375728	1.971094
C	0.000000	0.000000	0.000000
C	0.075300	0.860311	1.099446
C	0.195935	2.238951	0.776721
H	0.043151	0.492916	2.136088
C	0.215188	2.458766	-0.612546
S	0.082160	0.938811	-1.486809
C	0.290762	3.322559	1.814609
H	0.253664	2.898542	2.836676
H	-0.541206	4.052140	1.726239
H	1.236797	3.896558	1.726228
H	0.297938	3.404370	-1.161575
H	-1.336254	-4.392713	-0.521098
H	0.218374	-4.392347	-1.418509
H	-0.935365	-1.440937	0.539900
$end

$rem
JOBTYPE		SP
EXCHANGE	HF
CORRELATION	pRIMP2
BASIS		cc-pvtz
METHOD		rimp2
AUX_BASIS	rimp2-cc-pvtz
SOLVENT_METHOD	PCM
PURECART	11111
SYMMETRY	false
MEM_TOTAL	110000
SCF_CONVERGENCE = 6
THRESH=10
$end

$solvent
dielectric 4.90
$end
--------------------------------------------------------------

             Standard Nuclear Orientation (Angstroms)
    I     Atom           X                Y                Z
 ----------------------------------------------------------------
    1      C      -0.3869460000    -3.8667250000    -0.6716360000
    2      C       0.3065440000    -3.7039630000     0.5303450000
    3      C       0.5332610000    -2.3570560000     0.9237700000
    4      H       0.6518570000    -4.5610920000     1.1281090000
    5      C       0.0000000000    -1.4406640000     0.0000000000
    6      S      -0.7722500000    -2.2869570000    -1.3375570000
    7      C       1.2606800000    -1.9787430000     2.1841530000
    8      H       1.5832830000    -2.8786780000     2.7427690000
    9      H       0.6221800000    -1.3760150000     2.8633470000
   10      H       2.1680110000    -1.3757280000     1.9710940000
   11      C       0.0000000000     0.0000000000     0.0000000000
   12      C       0.0753000000     0.8603110000     1.0994460000
   13      C       0.1959350000     2.2389510000     0.7767210000
   14      H       0.0431510000     0.4929160000     2.1360880000
   15      C       0.2151880000     2.4587660000    -0.6125460000
   16      S       0.0821600000     0.9388110000    -1.4868090000
   17      C       0.2907620000     3.3225590000     1.8146090000
   18      H       0.2536640000     2.8985420000     2.8366760000
   19      H      -0.5412060000     4.0521400000     1.7262390000
   20      H       1.2367970000     3.8965580000     1.7262280000
   21      H       0.2979380000     3.4043700000    -1.1615750000
   22      H      -1.3362540000    -4.3927130000    -0.5210980000
   23      H       0.2183740000    -4.3923470000    -1.4185090000
   24      H      -0.9353650000    -1.4409370000     0.5399000000
 ----------------------------------------------------------------

   10   -1180.7579943928      5.03e-07  Convergence criterion met
 Total energy in the final basis set =    -1180.7579943928
        RIMP2         total energy =     -1182.7641688658 a.u.

                    Orbital Energies (a.u.)
 --------------------------------------------------------------

 Alpha MOs
 -- Occupied --
-91.9833 -91.9454 -11.2884 -11.2659 -11.2600 -11.2554 -11.2505 -11.2437
-11.2335 -11.2324 -11.2285 -11.2227  -8.9829  -8.9500  -6.6638  -6.6632
 -6.6626  -6.6314  -6.6304  -6.6291  -1.2014  -1.1526  -1.0599  -1.0306
 -1.0024  -0.9614  -0.9148  -0.9000  -0.8181  -0.7626  -0.7271  -0.7068
 -0.6597  -0.6472  -0.6108  -0.5925  -0.5860  -0.5697  -0.5599  -0.5538
 -0.5429  -0.5341  -0.5205  -0.5040  -0.4850  -0.4830  -0.4671  -0.4452
 -0.3587  -0.3434  -0.3227  -0.2671

          Ground-State Mulliken Net Atomic Charges

     Atom                 Charge (a.u.)
  ----------------------------------------
      1 C                    -0.075404
      2 C                    -0.317294
      3 C                    -0.062282
      4 H                     0.178149
      5 C                     0.136012
      6 S                    -0.178347
      7 C                    -0.288506
      8 H                     0.119722
      9 H                     0.098832
     10 H                     0.117039
     11 C                    -0.065397
     12 C                    -0.275411
     13 C                     0.032843
     14 H                     0.188995
     15 C                    -0.271838
     16 S                     0.012652
     17 C                    -0.273547
     18 H                     0.100897
     19 H                     0.108675
     20 H                     0.108533
     21 H                     0.195530
     22 H                     0.112913
     23 H                     0.112411
     24 H                     0.184824
  ----------------------------------------
  Sum of atomic charges =     0.000000

                    Cartesian Multipole Moments
 -----------------------------------------------------------------
    Charge (ESU x 10^10)
                -0.0000
    Dipole Moment (Debye)
         X       0.5939      Y      -0.2637      Z       3.8943
       Tot       3.9482
    Quadrupole Moments (Debye-Ang)
        XX     -91.3471     XY       0.4816     YY     -73.1895
        XZ       0.3921     YZ      -2.5788     ZZ     -86.1211

 Total job time:  656.66s(wall), 652.43s(cpu)
        *  Thank you very much for using Q-Chem.  Have a nice day.  *
