 Q-Chem 5.4, Q-Chem, Inc., Pleasanton, CA (2021)
 Q-Chem 5.4.0 for Intel X86 EM64T Linux

User input:
--------------------------------------------------------------
$molecule
0 1
C	-0.728625	-3.866725	0.264439
C	0.575519	-3.703963	-0.209794
C	1.002336	-2.357056	-0.364749
H	1.224165	-4.561092	-0.446060
C	-0.000000	-1.440664	-0.000000
S	-1.451336	-2.286957	0.528253
C	2.369885	-1.978743	-0.862253
H	2.976034	-2.878678	-1.082953
H	2.927887	-1.376015	-0.115513
H	2.317620	-1.375728	-1.792797
C	0.000000	0.000000	0.000000
C	0.149995	0.850475	1.099446
C	0.390327	2.213354	0.776721
H	0.085947	0.487279	2.136088
C	0.428665	2.430655	-0.612546
S	0.163670	0.928078	-1.486809
C	0.579235	3.284574	1.814609
H	0.505323	2.865404	2.836676
H	-0.185980	4.083890	1.726239
H	1.571698	3.773937	1.726228
H	0.593515	3.365448	-1.161575
H	-0.745219	-4.392713	1.225465
H	-1.359038	-4.392347	-0.461378
H	0.369273	-1.440937	1.014907
$end

$rem
JOBTYPE		SP
EXCHANGE	HF
CORRELATION	pRIMP2
BASIS		cc-pvtz
METHOD		rimp2
AUX_BASIS	rimp2-cc-pvtz
SOLVENT_METHOD	PCM
PURECART	11111
SYMMETRY	false
MEM_TOTAL	110000
SCF_CONVERGENCE = 6
THRESH=10
$end

$solvent
dielectric 4.90
$end
--------------------------------------------------------------

             Standard Nuclear Orientation (Angstroms)
    I     Atom           X                Y                Z
 ----------------------------------------------------------------
    1      C      -0.7286250000    -3.8667250000     0.2644390000
    2      C       0.5755190000    -3.7039630000    -0.2097940000
    3      C       1.0023360000    -2.3570560000    -0.3647490000
    4      H       1.2241650000    -4.5610920000    -0.4460600000
    5      C       0.0000000000    -1.4406640000     0.0000000000
    6      S      -1.4513360000    -2.2869570000     0.5282530000
    7      C       2.3698850000    -1.9787430000    -0.8622530000
    8      H       2.9760340000    -2.8786780000    -1.0829530000
    9      H       2.9278870000    -1.3760150000    -0.1155130000
   10      H       2.3176200000    -1.3757280000    -1.7927970000
   11      C       0.0000000000     0.0000000000     0.0000000000
   12      C       0.1499950000     0.8504750000     1.0994460000
   13      C       0.3903270000     2.2133540000     0.7767210000
   14      H       0.0859470000     0.4872790000     2.1360880000
   15      C       0.4286650000     2.4306550000    -0.6125460000
   16      S       0.1636700000     0.9280780000    -1.4868090000
   17      C       0.5792350000     3.2845740000     1.8146090000
   18      H       0.5053230000     2.8654040000     2.8366760000
   19      H      -0.1859800000     4.0838900000     1.7262390000
   20      H       1.5716980000     3.7739370000     1.7262280000
   21      H       0.5935150000     3.3654480000    -1.1615750000
   22      H      -0.7452190000    -4.3927130000     1.2254650000
   23      H      -1.3590380000    -4.3923470000    -0.4613780000
   24      H       0.3692730000    -1.4409370000     1.0149070000
 ----------------------------------------------------------------

   10   -1180.7607494793      5.04e-07  Convergence criterion met
 Total energy in the final basis set =    -1180.7607494793
        RIMP2         total energy =     -1182.7662349741 a.u.

                    Orbital Energies (a.u.)
 --------------------------------------------------------------

 Alpha MOs
 -- Occupied --
-91.9813 -91.9406 -11.2822 -11.2638 -11.2634 -11.2555 -11.2510 -11.2425
-11.2407 -11.2311 -11.2293 -11.2198  -8.9812  -8.9454  -6.6621  -6.6616
 -6.6610  -6.6267  -6.6257  -6.6244  -1.1985  -1.1536  -1.0584  -1.0252
 -1.0071  -0.9590  -0.9123  -0.9013  -0.8142  -0.7643  -0.7335  -0.7010
 -0.6614  -0.6412  -0.6104  -0.5881  -0.5796  -0.5726  -0.5670  -0.5510
 -0.5419  -0.5306  -0.5150  -0.5053  -0.4930  -0.4799  -0.4593  -0.4484
 -0.3553  -0.3429  -0.3147  -0.2773

          Ground-State Mulliken Net Atomic Charges

     Atom                 Charge (a.u.)
  ----------------------------------------
      1 C                    -0.078172
      2 C                    -0.327021
      3 C                    -0.016124
      4 H                     0.176883
      5 C                     0.077362
      6 S                    -0.178940
      7 C                    -0.268638
      8 H                     0.114021
      9 H                     0.104351
     10 H                     0.107132
     11 C                    -0.073500
     12 C                    -0.249648
     13 C                     0.025504
     14 H                     0.182548
     15 C                    -0.241459
     16 S                     0.007467
     17 C                    -0.271630
     18 H                     0.102267
     19 H                     0.108696
     20 H                     0.107906
     21 H                     0.196486
     22 H                     0.110692
     23 H                     0.112552
     24 H                     0.171266
  ----------------------------------------
  Sum of atomic charges =     0.000000

                    Cartesian Multipole Moments
 -----------------------------------------------------------------
    Charge (ESU x 10^10)
                -0.0000
    Dipole Moment (Debye)
         X       2.8932      Y       0.5000      Z       1.4019
       Tot       3.2536
    Quadrupole Moments (Debye-Ang)
        XX     -91.6706     XY      -2.1552     YY     -74.1076
        XZ      -0.0838     YZ       1.0901     ZZ     -85.7858

 Total job time:  653.21s(wall), 649.25s(cpu)
        *  Thank you very much for using Q-Chem.  Have a nice day.  *
