 Q-Chem 5.4, Q-Chem, Inc., Pleasanton, CA (2021)
 Q-Chem 5.4.0 for Intel X86 EM64T Linux

User input:
--------------------------------------------------------------
$molecule
0 1
C	-0.497696	-3.866725	-0.594240
C	0.393981	-3.703963	0.469057
C	0.685571	-2.357056	0.817136
H	0.837848	-4.561092	0.997777
C	-0.000000	-1.440664	-0.000000
S	-0.992782	-2.286957	-1.183137
C	1.620802	-1.978743	1.932056
H	2.035506	-2.878678	2.426166
H	1.109943	-1.376015	2.711806
H	2.477350	-1.375728	1.564678
C	0.000000	0.000000	0.000000
C	0.075300	0.860311	1.099446
C	0.195935	2.238951	0.776721
H	0.043151	0.492916	2.136088
C	0.215188	2.458766	-0.612546
S	0.082160	0.938811	-1.486809
C	0.290762	3.322559	1.814609
H	0.253664	2.898542	2.836676
H	-0.541206	4.052140	1.726239
H	1.236797	3.896558	1.726228
H	0.297938	3.404370	-1.161575
H	-1.406441	-4.392713	-0.281143
H	-0.031265	-4.392347	-1.434879
H	-0.827402	-1.440937	0.694122
$end

$rem
JOBTYPE		SP
EXCHANGE	HF
CORRELATION	pRIMP2
BASIS		cc-pvtz
METHOD		rimp2
AUX_BASIS	rimp2-cc-pvtz
SOLVENT_METHOD	PCM
PURECART	11111
SYMMETRY	false
MEM_TOTAL	110000
SCF_CONVERGENCE = 6
THRESH=10
$end

$solvent
dielectric 4.90
$end
--------------------------------------------------------------

             Standard Nuclear Orientation (Angstroms)
    I     Atom           X                Y                Z
 ----------------------------------------------------------------
    1      C      -0.4976960000    -3.8667250000    -0.5942400000
    2      C       0.3939810000    -3.7039630000     0.4690570000
    3      C       0.6855710000    -2.3570560000     0.8171360000
    4      H       0.8378480000    -4.5610920000     0.9977770000
    5      C       0.0000000000    -1.4406640000     0.0000000000
    6      S      -0.9927820000    -2.2869570000    -1.1831370000
    7      C       1.6208020000    -1.9787430000     1.9320560000
    8      H       2.0355060000    -2.8786780000     2.4261660000
    9      H       1.1099430000    -1.3760150000     2.7118060000
   10      H       2.4773500000    -1.3757280000     1.5646780000
   11      C       0.0000000000     0.0000000000     0.0000000000
   12      C       0.0753000000     0.8603110000     1.0994460000
   13      C       0.1959350000     2.2389510000     0.7767210000
   14      H       0.0431510000     0.4929160000     2.1360880000
   15      C       0.2151880000     2.4587660000    -0.6125460000
   16      S       0.0821600000     0.9388110000    -1.4868090000
   17      C       0.2907620000     3.3225590000     1.8146090000
   18      H       0.2536640000     2.8985420000     2.8366760000
   19      H      -0.5412060000     4.0521400000     1.7262390000
   20      H       1.2367970000     3.8965580000     1.7262280000
   21      H       0.2979380000     3.4043700000    -1.1615750000
   22      H      -1.4064410000    -4.3927130000    -0.2811430000
   23      H      -0.0312650000    -4.3923470000    -1.4348790000
   24      H      -0.8274020000    -1.4409370000     0.6941220000
 ----------------------------------------------------------------

   10   -1180.7597465552      5.01e-07  Convergence criterion met
 Total energy in the final basis set =    -1180.7597465552
        RIMP2         total energy =     -1182.7656206255 a.u.

                    Orbital Energies (a.u.)
 --------------------------------------------------------------

 Alpha MOs
 -- Occupied --
-91.9825 -91.9445 -11.2868 -11.2652 -11.2588 -11.2576 -11.2508 -11.2429
-11.2354 -11.2328 -11.2288 -11.2216  -8.9822  -8.9491  -6.6631  -6.6626
 -6.6620  -6.6305  -6.6295  -6.6282  -1.2005  -1.1528  -1.0594  -1.0294
 -1.0029  -0.9614  -0.9138  -0.9003  -0.8176  -0.7618  -0.7288  -0.7061
 -0.6601  -0.6457  -0.6107  -0.5915  -0.5849  -0.5701  -0.5605  -0.5540
 -0.5425  -0.5329  -0.5185  -0.5052  -0.4856  -0.4829  -0.4652  -0.4462
 -0.3573  -0.3430  -0.3214  -0.2697

          Ground-State Mulliken Net Atomic Charges

     Atom                 Charge (a.u.)
  ----------------------------------------
      1 C                    -0.075797
      2 C                    -0.320953
      3 C                    -0.054218
      4 H                     0.177713
      5 C                     0.123293
      6 S                    -0.176896
      7 C                    -0.278240
      8 H                     0.118211
      9 H                     0.097787
     10 H                     0.114160
     11 C                    -0.070334
     12 C                    -0.269184
     13 C                     0.027050
     14 H                     0.189923
     15 C                    -0.261499
     16 S                     0.011204
     17 C                    -0.273381
     18 H                     0.101146
     19 H                     0.108773
     20 H                     0.108444
     21 H                     0.195827
     22 H                     0.112637
     23 H                     0.111873
     24 H                     0.182460
  ----------------------------------------
  Sum of atomic charges =     0.000000

                    Cartesian Multipole Moments
 -----------------------------------------------------------------
    Charge (ESU x 10^10)
                -0.0000
    Dipole Moment (Debye)
         X       1.0460      Y      -0.0480      Z       3.8005
       Tot       3.9421
    Quadrupole Moments (Debye-Ang)
        XX     -91.2961     XY      -0.1451     YY     -73.3762
        XZ       0.2829     YZ      -2.4367     ZZ     -86.2458

 Total job time:  654.52s(wall), 650.25s(cpu)
        *  Thank you very much for using Q-Chem.  Have a nice day.  *
