 Q-Chem 5.4, Q-Chem, Inc., Pleasanton, CA (2021)
 Q-Chem 5.4.0 for Intel X86 EM64T Linux

User input:
--------------------------------------------------------------
$molecule
0 1
C	0.388181	-3.866725	-0.670924
C	-0.306020	-3.703963	0.530648
C	-0.533378	-2.357056	0.923703
H	-0.651043	-4.561092	1.128579
C	0.000000	-1.440664	0.000000
S	0.772234	-2.286957	-1.337567
C	-1.261192	-1.978743	2.183857
H	-1.583666	-2.878678	2.742548
H	-2.168641	-1.376015	1.970497
H	-0.623012	-1.375728	2.863099
C	0.000000	0.000000	0.000000
C	0.661577	0.555087	1.099446
C	1.721724	1.444630	0.776721
H	0.379056	0.318032	2.136088
C	1.890772	1.586449	-0.612546
S	0.721935	0.605744	-1.486809
C	2.555004	2.143805	1.814609
H	2.228946	1.870211	2.836676
H	2.482605	3.247987	1.726239
H	3.629830	1.880735	1.726228
H	2.617927	2.196579	-1.161575
H	-0.216843	-4.392713	-1.417779
H	1.337652	-4.392347	-0.520136
H	0.935250	-1.440391	0.540100
$end

$rem
JOBTYPE		SP
EXCHANGE	HF
CORRELATION	pRIMP2
BASIS		cc-pvtz
METHOD		rimp2
AUX_BASIS	rimp2-cc-pvtz
SOLVENT_METHOD	PCM
PURECART	11111
SYMMETRY	false
MEM_TOTAL	110000
SCF_CONVERGENCE = 6
THRESH=10
$end

$solvent
dielectric 4.90
$end
--------------------------------------------------------------

             Standard Nuclear Orientation (Angstroms)
    I     Atom           X                Y                Z
 ----------------------------------------------------------------
    1      C       0.3881810000    -3.8667250000    -0.6709240000
    2      C      -0.3060200000    -3.7039630000     0.5306480000
    3      C      -0.5333780000    -2.3570560000     0.9237030000
    4      H      -0.6510430000    -4.5610920000     1.1285790000
    5      C       0.0000000000    -1.4406640000     0.0000000000
    6      S       0.7722340000    -2.2869570000    -1.3375670000
    7      C      -1.2611920000    -1.9787430000     2.1838570000
    8      H      -1.5836660000    -2.8786780000     2.7425480000
    9      H      -2.1686410000    -1.3760150000     1.9704970000
   10      H      -0.6230120000    -1.3757280000     2.8630990000
   11      C       0.0000000000     0.0000000000     0.0000000000
   12      C       0.6615770000     0.5550870000     1.0994460000
   13      C       1.7217240000     1.4446300000     0.7767210000
   14      H       0.3790560000     0.3180320000     2.1360880000
   15      C       1.8907720000     1.5864490000    -0.6125460000
   16      S       0.7219350000     0.6057440000    -1.4868090000
   17      C       2.5550040000     2.1438050000     1.8146090000
   18      H       2.2289460000     1.8702110000     2.8366760000
   19      H       2.4826050000     3.2479870000     1.7262390000
   20      H       3.6298300000     1.8807350000     1.7262280000
   21      H       2.6179270000     2.1965790000    -1.1615750000
   22      H      -0.2168430000    -4.3927130000    -1.4177790000
   23      H       1.3376520000    -4.3923470000    -0.5201360000
   24      H       0.9352500000    -1.4403910000     0.5401000000
 ----------------------------------------------------------------

   11   -1180.6954199506      5.99e-07  Convergence criterion met
 Total energy in the final basis set =    -1180.6954199506
        RIMP2         total energy =     -1182.7179037090 a.u.

                    Orbital Energies (a.u.)
 --------------------------------------------------------------

 Alpha MOs
 -- Occupied --
-91.9853 -91.9391 -11.2716 -11.2713 -11.2587 -11.2531 -11.2514 -11.2420
-11.2357 -11.2322 -11.2301 -11.2154  -8.9854  -8.9437  -6.6662  -6.6655
 -6.6651  -6.6250  -6.6239  -6.6226  -1.2065  -1.1525  -1.0591  -1.0309
 -1.0003  -0.9622  -0.9103  -0.9018  -0.8143  -0.7584  -0.7310  -0.7029
 -0.6628  -0.6437  -0.6100  -0.5904  -0.5856  -0.5711  -0.5592  -0.5555
 -0.5409  -0.5343  -0.5177  -0.5067  -0.4863  -0.4797  -0.4602  -0.4340
 -0.3560  -0.3428  -0.3228  -0.2547

          Ground-State Mulliken Net Atomic Charges

     Atom                 Charge (a.u.)
  ----------------------------------------
      1 C                    -0.085934
      2 C                    -0.321652
      3 C                    -0.070946
      4 H                     0.172876
      5 C                     0.102757
      6 S                    -0.180460
      7 C                    -0.284550
      8 H                     0.116502
      9 H                     0.112533
     10 H                     0.097266
     11 C                    -0.090655
     12 C                    -0.208152
     13 C                     0.004800
     14 H                     0.191389
     15 C                    -0.233378
     16 S                     0.034449
     17 C                    -0.268918
     18 H                     0.101461
     19 H                     0.108447
     20 H                     0.106209
     21 H                     0.200327
     22 H                     0.106687
     23 H                     0.107734
     24 H                     0.181208
  ----------------------------------------
  Sum of atomic charges =     0.000000

                    Cartesian Multipole Moments
 -----------------------------------------------------------------
    Charge (ESU x 10^10)
                -0.0000
    Dipole Moment (Debye)
         X       1.3197      Y       0.3982      Z       3.7218
       Tot       3.9689
    Quadrupole Moments (Debye-Ang)
        XX     -84.7045     XY       6.0793     YY     -81.7169
        XZ       0.3293     YZ      -3.3018     ZZ     -85.4560

 Total job time:  738.63s(wall), 734.07s(cpu)
        *  Thank you very much for using Q-Chem.  Have a nice day.  *
