 Q-Chem 5.4, Q-Chem, Inc., Pleasanton, CA (2021)
 Q-Chem 5.4.0 for Intel X86 EM64T Linux

User input:
--------------------------------------------------------------
$molecule
0 1
C	0.728138	-3.866725	0.265779
C	-0.575726	-3.703963	-0.209225
C	-1.002290	-2.357056	-0.364875
H	-1.224486	-4.561092	-0.445176
C	0.000000	-1.440664	0.000000
S	1.451343	-2.286957	0.528236
C	-2.369683	-1.978743	-0.862808
H	-2.975883	-2.878678	-1.083368
H	-2.317142	-1.376015	-1.793522
H	-2.927787	-1.375728	-0.116375
C	0.000000	0.000000	0.000000
C	0.747916	0.431772	1.099446
C	1.946425	1.123709	0.776721
H	0.428523	0.247378	2.136088
C	2.137531	1.234018	-0.612546
S	0.816154	0.471179	-1.486809
C	2.888455	1.667564	1.814609
H	2.519842	1.454746	2.836676
H	3.008896	2.767543	1.726239
H	3.901271	1.221850	1.726228
H	2.959587	1.708609	-1.161575
H	1.358585	-4.392713	-0.459743
H	0.744515	-4.392347	1.227009
H	0.369490	-1.440937	-1.014829
$end

$rem
JOBTYPE		SP
EXCHANGE	HF
CORRELATION	pRIMP2
BASIS		cc-pvtz
METHOD		rimp2
AUX_BASIS	rimp2-cc-pvtz
SOLVENT_METHOD	PCM
PURECART	11111
SYMMETRY	false
MEM_TOTAL	110000
SCF_CONVERGENCE = 6
THRESH=10
$end

$solvent
dielectric 4.90
$end
--------------------------------------------------------------

             Standard Nuclear Orientation (Angstroms)
    I     Atom           X                Y                Z
 ----------------------------------------------------------------
    1      C       0.7281380000    -3.8667250000     0.2657790000
    2      C      -0.5757260000    -3.7039630000    -0.2092250000
    3      C      -1.0022900000    -2.3570560000    -0.3648750000
    4      H      -1.2244860000    -4.5610920000    -0.4451760000
    5      C       0.0000000000    -1.4406640000     0.0000000000
    6      S       1.4513430000    -2.2869570000     0.5282360000
    7      C      -2.3696830000    -1.9787430000    -0.8628080000
    8      H      -2.9758830000    -2.8786780000    -1.0833680000
    9      H      -2.3171420000    -1.3760150000    -1.7935220000
   10      H      -2.9277870000    -1.3757280000    -0.1163750000
   11      C       0.0000000000     0.0000000000     0.0000000000
   12      C       0.7479160000     0.4317720000     1.0994460000
   13      C       1.9464250000     1.1237090000     0.7767210000
   14      H       0.4285230000     0.2473780000     2.1360880000
   15      C       2.1375310000     1.2340180000    -0.6125460000
   16      S       0.8161540000     0.4711790000    -1.4868090000
   17      C       2.8884550000     1.6675640000     1.8146090000
   18      H       2.5198420000     1.4547460000     2.8366760000
   19      H       3.0088960000     2.7675430000     1.7262390000
   20      H       3.9012710000     1.2218500000     1.7262280000
   21      H       2.9595870000     1.7086090000    -1.1615750000
   22      H       1.3585850000    -4.3927130000    -0.4597430000
   23      H       0.7445150000    -4.3923470000     1.2270090000
   24      H       0.3694900000    -1.4409370000    -1.0148290000
 ----------------------------------------------------------------

   10   -1180.6764189662      8.14e-07  Convergence criterion met
 Total energy in the final basis set =    -1180.6764189662
        RIMP2         total energy =     -1182.6982840012 a.u.

                    Orbital Energies (a.u.)
 --------------------------------------------------------------

 Alpha MOs
 -- Occupied --
-91.9788 -91.9347 -11.2894 -11.2631 -11.2531 -11.2522 -11.2510 -11.2438
-11.2351 -11.2301 -11.2283 -11.2082  -8.9805  -8.9397  -6.6612  -6.6602
 -6.6600  -6.6211  -6.6201  -6.6188  -1.2084  -1.1525  -1.0602  -1.0232
 -1.0043  -0.9618  -0.9124  -0.8995  -0.8059  -0.7683  -0.7417  -0.7037
 -0.6489  -0.6285  -0.6167  -0.5873  -0.5799  -0.5757  -0.5661  -0.5506
 -0.5411  -0.5339  -0.5102  -0.5047  -0.4867  -0.4676  -0.4579  -0.4384
 -0.3569  -0.3371  -0.3191  -0.2638

          Ground-State Mulliken Net Atomic Charges

     Atom                 Charge (a.u.)
  ----------------------------------------
      1 C                    -0.086763
      2 C                    -0.340838
      3 C                    -0.061663
      4 H                     0.171671
      5 C                     0.084590
      6 S                    -0.199345
      7 C                    -0.275206
      8 H                     0.112920
      9 H                     0.099686
     10 H                     0.106226
     11 C                    -0.161065
     12 C                    -0.124446
     13 C                    -0.015361
     14 H                     0.191270
     15 C                    -0.159197
     16 S                     0.012375
     17 C                    -0.268202
     18 H                     0.103762
     19 H                     0.110282
     20 H                     0.106697
     21 H                     0.202346
     22 H                     0.107852
     23 H                     0.107500
     24 H                     0.174909
  ----------------------------------------
  Sum of atomic charges =     0.000000

                    Cartesian Multipole Moments
 -----------------------------------------------------------------
    Charge (ESU x 10^10)
                -0.0000
    Dipole Moment (Debye)
         X       0.7992      Y       1.0923      Z       0.2794
       Tot       1.3820
    Quadrupole Moments (Debye-Ang)
        XX     -82.2461     XY       8.3682     YY     -84.9437
        XZ       0.2426     YZ       2.9934     ZZ     -85.1372

 Total job time:  688.92s(wall), 686.80s(cpu)
        *  Thank you very much for using Q-Chem.  Have a nice day.  *
