 Q-Chem 5.4, Q-Chem, Inc., Pleasanton, CA (2021)
 Q-Chem 5.4.0 for Intel X86 EM64T Linux

User input:
--------------------------------------------------------------
$molecule
0 1
C	0.670748	-3.808105	0.775127
C	0.642889	-3.647744	-0.612565
C	0.409365	-2.321236	-1.066639
H	0.791563	-4.491881	-1.302900
C	0.250169	-1.418777	0.000000
S	0.397135	-2.252211	1.544483
C	0.343896	-1.948630	-2.521872
H	0.500095	-2.834906	-3.166949
H	1.118228	-1.200068	-2.790821
H	-0.639561	-1.509723	-2.791023
C	0.000000	0.000000	0.000000
C	0.000033	0.863600	1.099446
C	0.000052	2.247508	0.776721
H	0.000026	0.494801	2.136088
C	0.000074	2.468165	-0.612546
S	0.000024	0.942399	-1.486809
C	0.000075	3.335257	1.814609
H	0.000074	2.909620	2.836676
H	-0.892314	3.989552	1.726239
H	0.892483	3.989525	1.726228
H	0.000094	3.417382	-1.161575
H	1.645845	-4.170271	1.119411
H	-0.122001	-4.481618	1.119277
H	1.313809	-1.231506	0.000115
$end

$rem
JOBTYPE		SP
EXCHANGE	HF
CORRELATION	pRIMP2
BASIS		cc-pvtz
METHOD		rimp2
AUX_BASIS	rimp2-cc-pvtz
SOLVENT_METHOD	PCM
PURECART	11111
SYMMETRY	false
MEM_TOTAL	110000
SCF_CONVERGENCE = 6
THRESH=10
$end

$solvent
dielectric 4.90
$end
--------------------------------------------------------------

             Standard Nuclear Orientation (Angstroms)
    I     Atom           X                Y                Z
 ----------------------------------------------------------------
    1      C       0.6707480000    -3.8081050000     0.7751270000
    2      C       0.6428890000    -3.6477440000    -0.6125650000
    3      C       0.4093650000    -2.3212360000    -1.0666390000
    4      H       0.7915630000    -4.4918810000    -1.3029000000
    5      C       0.2501690000    -1.4187770000     0.0000000000
    6      S       0.3971350000    -2.2522110000     1.5444830000
    7      C       0.3438960000    -1.9486300000    -2.5218720000
    8      H       0.5000950000    -2.8349060000    -3.1669490000
    9      H       1.1182280000    -1.2000680000    -2.7908210000
   10      H      -0.6395610000    -1.5097230000    -2.7910230000
   11      C       0.0000000000     0.0000000000     0.0000000000
   12      C       0.0000330000     0.8636000000     1.0994460000
   13      C       0.0000520000     2.2475080000     0.7767210000
   14      H       0.0000260000     0.4948010000     2.1360880000
   15      C       0.0000740000     2.4681650000    -0.6125460000
   16      S       0.0000240000     0.9423990000    -1.4868090000
   17      C       0.0000750000     3.3352570000     1.8146090000
   18      H       0.0000740000     2.9096200000     2.8366760000
   19      H      -0.8923140000     3.9895520000     1.7262390000
   20      H       0.8924830000     3.9895250000     1.7262280000
   21      H       0.0000940000     3.4173820000    -1.1615750000
   22      H       1.6458450000    -4.1702710000     1.1194110000
   23      H      -0.1220010000    -4.4816180000     1.1192770000
   24      H       1.3138090000    -1.2315060000     0.0001150000
 ----------------------------------------------------------------

   10   -1180.7581760571      5.06e-07  Convergence criterion met
 Total energy in the final basis set =    -1180.7581760571
        RIMP2         total energy =     -1182.7639312286 a.u.

                    Orbital Energies (a.u.)
 --------------------------------------------------------------

 Alpha MOs
 -- Occupied --
-91.9811 -91.9470 -11.2913 -11.2661 -11.2633 -11.2526 -11.2498 -11.2446
-11.2330 -11.2296 -11.2274 -11.2236  -8.9812  -8.9515  -6.6622  -6.6616
 -6.6609  -6.6329  -6.6319  -6.6306  -1.2035  -1.1522  -1.0614  -1.0290
 -1.0067  -0.9561  -0.9168  -0.9017  -0.8149  -0.7728  -0.7170  -0.7042
 -0.6614  -0.6491  -0.6113  -0.5918  -0.5826  -0.5715  -0.5683  -0.5543
 -0.5426  -0.5345  -0.5165  -0.5096  -0.4892  -0.4848  -0.4579  -0.4452
 -0.3594  -0.3420  -0.3271  -0.2648

          Ground-State Mulliken Net Atomic Charges

     Atom                 Charge (a.u.)
  ----------------------------------------
      1 C                    -0.074151
      2 C                    -0.314044
      3 C                    -0.057216
      4 H                     0.179270
      5 C                     0.137336
      6 S                    -0.187270
      7 C                    -0.311754
      8 H                     0.122300
      9 H                     0.110633
     10 H                     0.116586
     11 C                    -0.002888
     12 C                    -0.331081
     13 C                     0.050845
     14 H                     0.176350
     15 C                    -0.286275
     16 S                     0.007149
     17 C                    -0.271620
     18 H                     0.102673
     19 H                     0.108305
     20 H                     0.108554
     21 H                     0.196285
     22 H                     0.111933
     23 H                     0.113353
     24 H                     0.194728
  ----------------------------------------
  Sum of atomic charges =     0.000000

                    Cartesian Multipole Moments
 -----------------------------------------------------------------
    Charge (ESU x 10^10)
                -0.0000
    Dipole Moment (Debye)
         X       1.1972      Y      -0.3895      Z      -1.0950
       Tot       1.6685
    Quadrupole Moments (Debye-Ang)
        XX     -90.9871     XY      -2.9357     YY     -73.7375
        XZ      -0.3157     YZ       4.7016     ZZ     -85.5367

 Total job time:  655.03s(wall), 649.59s(cpu)
        *  Thank you very much for using Q-Chem.  Have a nice day.  *
