 Q-Chem 5.4, Q-Chem, Inc., Pleasanton, CA (2021)
 Q-Chem 5.4.0 for Intel X86 EM64T Linux

User input:
--------------------------------------------------------------
$molecule
0 1
C	-0.386946	-3.866725	-0.671636
C	0.306544	-3.703963	0.530345
C	0.533261	-2.357056	0.923770
H	0.651857	-4.561092	1.128109
C	-0.000000	-1.440664	-0.000000
S	-0.772250	-2.286957	-1.337557
C	1.260680	-1.978743	2.184153
H	1.583283	-2.878678	2.742769
H	0.622180	-1.376015	2.863347
H	2.168011	-1.375728	1.971094
C	0.000000	0.000000	0.000000
C	0.555137	0.661535	1.099446
C	1.444710	1.721658	0.776721
H	0.318072	0.379023	2.136088
C	1.586563	1.890676	-0.612546
S	0.605781	0.721904	-1.486809
C	2.143920	2.554907	1.814609
H	1.870325	2.228851	2.836676
H	1.880882	3.629742	1.726239
H	3.248098	2.482476	1.726228
H	2.196723	2.617806	-1.161575
H	-1.336254	-4.392713	-0.521098
H	0.218374	-4.392347	-1.418509
H	0.935365	-1.440391	-0.539900
$end

$rem
JOBTYPE		SP
EXCHANGE	HF
CORRELATION	pRIMP2
BASIS		cc-pvtz
METHOD		rimp2
AUX_BASIS	rimp2-cc-pvtz
SOLVENT_METHOD	PCM
PURECART	11111
SYMMETRY	false
MEM_TOTAL	110000
SCF_CONVERGENCE = 6
THRESH=10
$end

$solvent
dielectric 4.90
$end
--------------------------------------------------------------

             Standard Nuclear Orientation (Angstroms)
    I     Atom           X                Y                Z
 ----------------------------------------------------------------
    1      C      -0.3869460000    -3.8667250000    -0.6716360000
    2      C       0.3065440000    -3.7039630000     0.5303450000
    3      C       0.5332610000    -2.3570560000     0.9237700000
    4      H       0.6518570000    -4.5610920000     1.1281090000
    5      C       0.0000000000    -1.4406640000     0.0000000000
    6      S      -0.7722500000    -2.2869570000    -1.3375570000
    7      C       1.2606800000    -1.9787430000     2.1841530000
    8      H       1.5832830000    -2.8786780000     2.7427690000
    9      H       0.6221800000    -1.3760150000     2.8633470000
   10      H       2.1680110000    -1.3757280000     1.9710940000
   11      C       0.0000000000     0.0000000000     0.0000000000
   12      C       0.5551370000     0.6615350000     1.0994460000
   13      C       1.4447100000     1.7216580000     0.7767210000
   14      H       0.3180720000     0.3790230000     2.1360880000
   15      C       1.5865630000     1.8906760000    -0.6125460000
   16      S       0.6057810000     0.7219040000    -1.4868090000
   17      C       2.1439200000     2.5549070000     1.8146090000
   18      H       1.8703250000     2.2288510000     2.8366760000
   19      H       1.8808820000     3.6297420000     1.7262390000
   20      H       3.2480980000     2.4824760000     1.7262280000
   21      H       2.1967230000     2.6178060000    -1.1615750000
   22      H      -1.3362540000    -4.3927130000    -0.5210980000
   23      H       0.2183740000    -4.3923470000    -1.4185090000
   24      H       0.9353650000    -1.4403910000    -0.5399000000
 ----------------------------------------------------------------

   10   -1180.7246073203      6.17e-07  Convergence criterion met
 Total energy in the final basis set =    -1180.7246073203
        RIMP2         total energy =     -1182.7393347657 a.u.

                    Orbital Energies (a.u.)
 --------------------------------------------------------------

 Alpha MOs
 -- Occupied --
-91.9783 -91.9393 -11.2769 -11.2681 -11.2636 -11.2576 -11.2515 -11.2414
-11.2406 -11.2323 -11.2298 -11.2203  -8.9791  -8.9444  -6.6600  -6.6593
 -6.6588  -6.6258  -6.6248  -6.6236  -1.2047  -1.1534  -1.0606  -1.0311
 -0.9988  -0.9645  -0.9141  -0.9007  -0.8113  -0.7618  -0.7399  -0.7067
 -0.6523  -0.6434  -0.6116  -0.5939  -0.5815  -0.5713  -0.5649  -0.5521
 -0.5470  -0.5349  -0.5236  -0.5074  -0.4826  -0.4724  -0.4602  -0.4441
 -0.3558  -0.3429  -0.3250  -0.2646

          Ground-State Mulliken Net Atomic Charges

     Atom                 Charge (a.u.)
  ----------------------------------------
      1 C                    -0.074224
      2 C                    -0.319659
      3 C                    -0.057496
      4 H                     0.178289
      5 C                     0.104883
      6 S                    -0.190029
      7 C                    -0.293544
      8 H                     0.119188
      9 H                     0.102343
     10 H                     0.111350
     11 C                    -0.021813
     12 C                    -0.314029
     13 C                     0.051914
     14 H                     0.193336
     15 C                    -0.243923
     16 S                     0.004000
     17 C                    -0.271900
     18 H                     0.102053
     19 H                     0.111668
     20 H                     0.107811
     21 H                     0.198185
     22 H                     0.112385
     23 H                     0.109629
     24 H                     0.179583
  ----------------------------------------
  Sum of atomic charges =     0.000000

                    Cartesian Multipole Moments
 -----------------------------------------------------------------
    Charge (ESU x 10^10)
                -0.0000
    Dipole Moment (Debye)
         X       3.2502      Y       0.0893      Z       3.3865
       Tot       4.6947
    Quadrupole Moments (Debye-Ang)
        XX     -87.4356     XY       2.4456     YY     -77.8545
        XZ       0.5173     YZ      -1.5449     ZZ     -85.6966

 Total job time:  683.23s(wall), 679.81s(cpu)
        *  Thank you very much for using Q-Chem.  Have a nice day.  *
