 Q-Chem 5.4, Q-Chem, Inc., Pleasanton, CA (2021)
 Q-Chem 5.4.0 for Intel X86 EM64T Linux

User input:
--------------------------------------------------------------
$molecule
0 1
C	0.386946	-3.866725	0.671636
C	-0.306544	-3.703963	-0.530345
C	-0.533261	-2.357056	-0.923770
H	-0.651857	-4.561092	-1.128109
C	-0.000000	-1.440664	-0.000000
S	0.772250	-2.286957	1.337557
C	-1.260680	-1.978743	-2.184153
H	-1.583283	-2.878678	-2.742769
H	-0.622180	-1.376015	-2.863347
H	-2.168011	-1.375728	-1.971094
C	0.000000	0.000000	0.000000
C	0.365003	0.782674	1.099446
C	0.949885	2.036912	0.776721
H	0.209135	0.448431	2.136088
C	1.043159	2.236886	-0.612546
S	0.398297	0.854094	-1.486809
C	1.409609	3.022738	1.814609
H	1.229726	2.636980	2.836676
H	0.877346	3.992870	1.726239
H	2.494910	3.238558	1.726228
H	1.444334	3.097160	-1.161575
H	1.336254	-4.392713	0.521098
H	-0.218374	-4.392347	1.418509
H	-0.935365	-1.440391	0.539900
$end

$rem
JOBTYPE		SP
EXCHANGE	HF
CORRELATION	pRIMP2
BASIS		cc-pvtz
METHOD		rimp2
AUX_BASIS	rimp2-cc-pvtz
SOLVENT_METHOD	PCM
PURECART	11111
SYMMETRY	false
MEM_TOTAL	110000
SCF_CONVERGENCE = 6
THRESH=10
$end

$solvent
dielectric 4.90
$end
--------------------------------------------------------------

             Standard Nuclear Orientation (Angstroms)
    I     Atom           X                Y                Z
 ----------------------------------------------------------------
    1      C       0.3869460000    -3.8667250000     0.6716360000
    2      C      -0.3065440000    -3.7039630000    -0.5303450000
    3      C      -0.5332610000    -2.3570560000    -0.9237700000
    4      H      -0.6518570000    -4.5610920000    -1.1281090000
    5      C       0.0000000000    -1.4406640000     0.0000000000
    6      S       0.7722500000    -2.2869570000     1.3375570000
    7      C      -1.2606800000    -1.9787430000    -2.1841530000
    8      H      -1.5832830000    -2.8786780000    -2.7427690000
    9      H      -0.6221800000    -1.3760150000    -2.8633470000
   10      H      -2.1680110000    -1.3757280000    -1.9710940000
   11      C       0.0000000000     0.0000000000     0.0000000000
   12      C       0.3650030000     0.7826740000     1.0994460000
   13      C       0.9498850000     2.0369120000     0.7767210000
   14      H       0.2091350000     0.4484310000     2.1360880000
   15      C       1.0431590000     2.2368860000    -0.6125460000
   16      S       0.3982970000     0.8540940000    -1.4868090000
   17      C       1.4096090000     3.0227380000     1.8146090000
   18      H       1.2297260000     2.6369800000     2.8366760000
   19      H       0.8773460000     3.9928700000     1.7262390000
   20      H       2.4949100000     3.2385580000     1.7262280000
   21      H       1.4443340000     3.0971600000    -1.1615750000
   22      H       1.3362540000    -4.3927130000     0.5210980000
   23      H      -0.2183740000    -4.3923470000     1.4185090000
   24      H      -0.9353650000    -1.4403910000     0.5399000000
 ----------------------------------------------------------------

   10   -1180.7461878713      5.33e-07  Convergence criterion met
 Total energy in the final basis set =    -1180.7461878713
        RIMP2         total energy =     -1182.7558018099 a.u.

                    Orbital Energies (a.u.)
 --------------------------------------------------------------

 Alpha MOs
 -- Occupied --
-91.9803 -91.9441 -11.2830 -11.2640 -11.2603 -11.2566 -11.2512 -11.2419
-11.2382 -11.2328 -11.2283 -11.2206  -8.9805  -8.9487  -6.6614  -6.6607
 -6.6602  -6.6300  -6.6290  -6.6277  -1.2008  -1.1530  -1.0593  -1.0275
 -1.0072  -0.9568  -0.9149  -0.9015  -0.8147  -0.7701  -0.7230  -0.7009
 -0.6601  -0.6445  -0.6109  -0.5885  -0.5824  -0.5748  -0.5675  -0.5534
 -0.5411  -0.5345  -0.5151  -0.5096  -0.4880  -0.4777  -0.4584  -0.4471
 -0.3569  -0.3421  -0.3237  -0.2649

          Ground-State Mulliken Net Atomic Charges

     Atom                 Charge (a.u.)
  ----------------------------------------
      1 C                    -0.079031
      2 C                    -0.322924
      3 C                    -0.047702
      4 H                     0.177433
      5 C                     0.114232
      6 S                    -0.177477
      7 C                    -0.293980
      8 H                     0.117955
      9 H                     0.111234
     10 H                     0.110967
     11 C                    -0.022463
     12 C                    -0.329163
     13 C                     0.059052
     14 H                     0.183659
     15 C                    -0.262070
     16 S                     0.011568
     17 C                    -0.271138
     18 H                     0.102840
     19 H                     0.107960
     20 H                     0.109022
     21 H                     0.194513
     22 H                     0.112575
     23 H                     0.110395
     24 H                     0.182543
  ----------------------------------------
  Sum of atomic charges =     0.000000

                    Cartesian Multipole Moments
 -----------------------------------------------------------------
    Charge (ESU x 10^10)
                -0.0000
    Dipole Moment (Debye)
         X      -1.2608      Y       0.0078      Z      -0.1297
       Tot       1.2675
    Quadrupole Moments (Debye-Ang)
        XX     -90.0612     XY       7.0635     YY     -75.3006
        XZ       0.5941     YZ       3.4596     ZZ     -85.4667

 Total job time:  647.67s(wall), 644.24s(cpu)
        *  Thank you very much for using Q-Chem.  Have a nice day.  *
