 Q-Chem 5.4, Q-Chem, Inc., Pleasanton, CA (2021)
 Q-Chem 5.4.0 for Intel X86 EM64T Linux

User input:
--------------------------------------------------------------
$molecule
0 1
C	-0.728625	-3.866725	0.264439
C	0.575519	-3.703963	-0.209794
C	1.002336	-2.357056	-0.364749
H	1.224165	-4.561092	-0.446060
C	0.000000	-1.440664	0.000000
S	-1.451336	-2.286957	0.528253
C	2.369885	-1.978743	-0.862253
H	2.976034	-2.878678	-1.082953
H	2.927887	-1.376015	-0.115513
H	2.317620	-1.375728	-1.792797
C	0.000000	0.000000	0.000000
C	0.295399	0.811508	1.099446
C	0.768742	2.111949	0.776721
H	0.169256	0.464952	2.136088
C	0.844232	2.319291	-0.612546
S	0.322342	0.885558	-1.486809
C	1.140796	3.134091	1.814609
H	0.995218	2.734123	2.836676
H	0.526006	4.054142	1.726239
H	2.203157	3.443680	1.726228
H	1.168902	3.211257	-1.161575
H	-0.745219	-4.392713	1.225465
H	-1.359038	-4.392347	-0.461378
H	-0.369273	-1.440391	-1.014907
$end

$rem
JOBTYPE		SP
EXCHANGE	HF
CORRELATION	pRIMP2
BASIS		cc-pvtz
METHOD		rimp2
AUX_BASIS	rimp2-cc-pvtz
SOLVENT_METHOD	PCM
PURECART	11111
SYMMETRY	false
MEM_TOTAL	110000
SCF_CONVERGENCE = 6
THRESH=10
$end

$solvent
dielectric 4.90
$end
--------------------------------------------------------------

   10   -1180.7509044216      5.31e-07  Convergence criterion met
 Total energy in the final basis set =    -1180.7509044216
        RIMP2         total energy =     -1182.7581785913 a.u.
 Total job time:  694.07s(wall), 689.62s(cpu)
        *  Thank you very much for using Q-Chem.  Have a nice day.  *
 Q-Chem 5.4, Q-Chem, Inc., Pleasanton, CA (2021)
 Q-Chem 5.4.0 for Intel X86 EM64T Linux

User input:
--------------------------------------------------------------
$molecule
0 1
C	-0.728625	-3.866725	0.264439
C	0.575519	-3.703963	-0.209794
C	1.002336	-2.357056	-0.364749
H	1.224165	-4.561092	-0.446060
C	0.000000	-1.440664	0.000000
S	-1.451336	-2.286957	0.528253
C	2.369885	-1.978743	-0.862253
H	2.976034	-2.878678	-1.082953
H	2.927887	-1.376015	-0.115513
H	2.317620	-1.375728	-1.792797
C	0.000000	0.000000	0.000000
C	0.295399	0.811508	1.099446
C	0.768742	2.111949	0.776721
H	0.169256	0.464952	2.136088
C	0.844232	2.319291	-0.612546
S	0.322342	0.885558	-1.486809
C	1.140796	3.134091	1.814609
H	0.995218	2.734123	2.836676
H	0.526006	4.054142	1.726239
H	2.203157	3.443680	1.726228
H	1.168902	3.211257	-1.161575
H	-0.745219	-4.392713	1.225465
H	-1.359038	-4.392347	-0.461378
H	-0.369273	-1.440391	-1.014907
$end

$rem
JOBTYPE		SP
EXCHANGE	HF
CORRELATION	pRIMP2
BASIS		cc-pvtz
METHOD		rimp2
AUX_BASIS	rimp2-cc-pvtz
SOLVENT_METHOD	PCM
PURECART	11111
SYMMETRY	false
MEM_TOTAL	110000
SCF_CONVERGENCE = 6
THRESH=10
$end

$solvent
dielectric 4.90
$end
--------------------------------------------------------------

             Standard Nuclear Orientation (Angstroms)
    I     Atom           X                Y                Z
 ----------------------------------------------------------------
    1      C      -0.7286250000    -3.8667250000     0.2644390000
    2      C       0.5755190000    -3.7039630000    -0.2097940000
    3      C       1.0023360000    -2.3570560000    -0.3647490000
    4      H       1.2241650000    -4.5610920000    -0.4460600000
    5      C       0.0000000000    -1.4406640000     0.0000000000
    6      S      -1.4513360000    -2.2869570000     0.5282530000
    7      C       2.3698850000    -1.9787430000    -0.8622530000
    8      H       2.9760340000    -2.8786780000    -1.0829530000
    9      H       2.9278870000    -1.3760150000    -0.1155130000
   10      H       2.3176200000    -1.3757280000    -1.7927970000
   11      C       0.0000000000     0.0000000000     0.0000000000
   12      C       0.2953990000     0.8115080000     1.0994460000
   13      C       0.7687420000     2.1119490000     0.7767210000
   14      H       0.1692560000     0.4649520000     2.1360880000
   15      C       0.8442320000     2.3192910000    -0.6125460000
   16      S       0.3223420000     0.8855580000    -1.4868090000
   17      C       1.1407960000     3.1340910000     1.8146090000
   18      H       0.9952180000     2.7341230000     2.8366760000
   19      H       0.5260060000     4.0541420000     1.7262390000
   20      H       2.2031570000     3.4436800000     1.7262280000
   21      H       1.1689020000     3.2112570000    -1.1615750000
   22      H      -0.7452190000    -4.3927130000     1.2254650000
   23      H      -1.3590380000    -4.3923470000    -0.4613780000
   24      H      -0.3692730000    -1.4403910000    -1.0149070000
 ----------------------------------------------------------------

   10   -1180.7509044216      5.31e-07  Convergence criterion met
 Total energy in the final basis set =    -1180.7509044216
        RIMP2         total energy =     -1182.7581785913 a.u.

                    Orbital Energies (a.u.)
 --------------------------------------------------------------

 Alpha MOs
 -- Occupied --
-91.9864 -91.9404 -11.2761 -11.2678 -11.2625 -11.2546 -11.2515 -11.2402
-11.2400 -11.2301 -11.2290 -11.2185  -8.9861  -8.9450  -6.6670  -6.6665
 -6.6659  -6.6264  -6.6254  -6.6241  -1.1983  -1.1539  -1.0588  -1.0244
 -1.0044  -0.9625  -0.9127  -0.9008  -0.8111  -0.7662  -0.7367  -0.7053
 -0.6531  -0.6338  -0.6111  -0.5884  -0.5751  -0.5750  -0.5703  -0.5532
 -0.5424  -0.5290  -0.5159  -0.5048  -0.4910  -0.4775  -0.4631  -0.4462
 -0.3545  -0.3428  -0.3148  -0.2785

          Ground-State Mulliken Net Atomic Charges

     Atom                 Charge (a.u.)
  ----------------------------------------
      1 C                    -0.075158
      2 C                    -0.331110
      3 C                    -0.018457
      4 H                     0.176038
      5 C                     0.078070
      6 S                    -0.179143
      7 C                    -0.269225
      8 H                     0.114108
      9 H                     0.109233
     10 H                     0.103291
     11 C                    -0.099149
     12 C                    -0.229774
     13 C                     0.025970
     14 H                     0.186405
     15 C                    -0.237804
     16 S                     0.013401
     17 C                    -0.271338
     18 H                     0.103251
     19 H                     0.108129
     20 H                     0.107255
     21 H                     0.198761
     22 H                     0.111423
     23 H                     0.109696
     24 H                     0.166125
  ----------------------------------------
  Sum of atomic charges =     0.000000

                    Cartesian Multipole Moments
 -----------------------------------------------------------------
    Charge (ESU x 10^10)
                -0.0000
    Dipole Moment (Debye)
         X       2.7635      Y       0.7911      Z      -0.0829
       Tot       2.8757
    Quadrupole Moments (Debye-Ang)
        XX     -90.3569     XY       0.6639     YY     -75.0647
        XZ       0.4863     YZ       3.4200     ZZ     -86.0178

 Total job time:  651.90s(wall), 649.73s(cpu)
        *  Thank you very much for using Q-Chem.  Have a nice day.  *
