 Q-Chem 5.4, Q-Chem, Inc., Pleasanton, CA (2021)
 Q-Chem 5.4.0 for Intel X86 EM64T Linux

User input:
--------------------------------------------------------------
$molecule
0 1
C	0.593324	-3.866725	0.498788
C	-0.469446	-3.703963	-0.393517
C	-0.817050	-2.357056	-0.685674
H	-0.998381	-4.561092	-0.837128
C	-0.000000	-1.440664	-0.000000
S	1.183149	-2.286957	0.992768
C	-1.931676	-1.978743	-1.621254
H	-2.425882	-2.878678	-2.035845
H	-1.563980	-1.376015	-2.477868
H	-2.711417	-1.375728	-1.110719
C	0.000000	0.000000	0.000000
C	0.365003	0.782674	1.099446
C	0.949885	2.036912	0.776721
H	0.209135	0.448431	2.136088
C	1.043159	2.236886	-0.612546
S	0.398297	0.854094	-1.486809
C	1.409609	3.022738	1.814609
H	1.229726	2.636980	2.836676
H	0.877346	3.992870	1.726239
H	2.494910	3.238558	1.726228
H	1.444334	3.097160	-1.161575
H	1.433894	-4.392713	0.032646
H	0.279954	-4.392347	1.407651
H	0.694299	-1.440937	-0.827254
$end

$rem
JOBTYPE		SP
EXCHANGE	HF
CORRELATION	pRIMP2
BASIS		cc-pvtz
METHOD		rimp2
AUX_BASIS	rimp2-cc-pvtz
SOLVENT_METHOD	PCM
PURECART	11111
SYMMETRY	false
MEM_TOTAL	110000
SCF_CONVERGENCE = 6
THRESH=10
$end

$solvent
dielectric 4.90
$end
--------------------------------------------------------------

             Standard Nuclear Orientation (Angstroms)
    I     Atom           X                Y                Z
 ----------------------------------------------------------------
    1      C       0.5933240000    -3.8667250000     0.4987880000
    2      C      -0.4694460000    -3.7039630000    -0.3935170000
    3      C      -0.8170500000    -2.3570560000    -0.6856740000
    4      H      -0.9983810000    -4.5610920000    -0.8371280000
    5      C       0.0000000000    -1.4406640000     0.0000000000
    6      S       1.1831490000    -2.2869570000     0.9927680000
    7      C      -1.9316760000    -1.9787430000    -1.6212540000
    8      H      -2.4258820000    -2.8786780000    -2.0358450000
    9      H      -1.5639800000    -1.3760150000    -2.4778680000
   10      H      -2.7114170000    -1.3757280000    -1.1107190000
   11      C       0.0000000000     0.0000000000     0.0000000000
   12      C       0.3650030000     0.7826740000     1.0994460000
   13      C       0.9498850000     2.0369120000     0.7767210000
   14      H       0.2091350000     0.4484310000     2.1360880000
   15      C       1.0431590000     2.2368860000    -0.6125460000
   16      S       0.3982970000     0.8540940000    -1.4868090000
   17      C       1.4096090000     3.0227380000     1.8146090000
   18      H       1.2297260000     2.6369800000     2.8366760000
   19      H       0.8773460000     3.9928700000     1.7262390000
   20      H       2.4949100000     3.2385580000     1.7262280000
   21      H       1.4443340000     3.0971600000    -1.1615750000
   22      H       1.4338940000    -4.3927130000     0.0326460000
   23      H       0.2799540000    -4.3923470000     1.4076510000
   24      H       0.6942990000    -1.4409370000    -0.8272540000
 ----------------------------------------------------------------

   10   -1180.7490059395      5.11e-07  Convergence criterion met
 Total energy in the final basis set =    -1180.7490059395
        RIMP2         total energy =     -1182.7556174516 a.u.

                    Orbital Energies (a.u.)
 --------------------------------------------------------------

 Alpha MOs
 -- Occupied --
-91.9819 -91.9429 -11.2807 -11.2642 -11.2612 -11.2557 -11.2508 -11.2407
-11.2392 -11.2322 -11.2284 -11.2192  -8.9822  -8.9474  -6.6632  -6.6626
 -6.6619  -6.6287  -6.6277  -6.6264  -1.2008  -1.1534  -1.0597  -1.0265
 -1.0043  -0.9599  -0.9144  -0.9005  -0.8122  -0.7689  -0.7302  -0.7031
 -0.6548  -0.6388  -0.6111  -0.5905  -0.5769  -0.5749  -0.5687  -0.5533
 -0.5422  -0.5334  -0.5134  -0.5075  -0.4865  -0.4813  -0.4623  -0.4461
 -0.3553  -0.3437  -0.3215  -0.2704

          Ground-State Mulliken Net Atomic Charges

     Atom                 Charge (a.u.)
  ----------------------------------------
      1 C                    -0.076434
      2 C                    -0.321407
      3 C                    -0.049205
      4 H                     0.175500
      5 C                     0.101584
      6 S                    -0.179028
      7 C                    -0.275127
      8 H                     0.114942
      9 H                     0.101474
     10 H                     0.110179
     11 C                    -0.035039
     12 C                    -0.313844
     13 C                     0.057533
     14 H                     0.187177
     15 C                    -0.249362
     16 S                     0.006628
     17 C                    -0.270677
     18 H                     0.103107
     19 H                     0.108165
     20 H                     0.108611
     21 H                     0.197029
     22 H                     0.110677
     23 H                     0.109443
     24 H                     0.178076
  ----------------------------------------
  Sum of atomic charges =     0.000000

                    Cartesian Multipole Moments
 -----------------------------------------------------------------
    Charge (ESU x 10^10)
                -0.0000
    Dipole Moment (Debye)
         X      -0.5507      Y       0.3429      Z      -0.5795
       Tot       0.8699
    Quadrupole Moments (Debye-Ang)
        XX     -89.4190     XY       5.9098     YY     -75.5617
        XZ       0.5268     YZ       4.3951     ZZ     -86.1363

 Total job time:  647.87s(wall), 643.78s(cpu)
        *  Thank you very much for using Q-Chem.  Have a nice day.  *
