 Q-Chem 5.4, Q-Chem, Inc., Pleasanton, CA (2021)
 Q-Chem 5.4.0 for Intel X86 EM64T Linux

User input:
--------------------------------------------------------------
$molecule
0 1
C	0.135301	-3.866725	-0.763228
C	-0.106073	-3.703963	0.603311
C	-0.185286	-2.357056	1.050423
H	-0.225783	-4.561092	1.283188
C	-0.000000	-1.440664	-0.000000
S	0.268187	-2.286957	-1.521021
C	-0.438209	-1.978743	2.483507
H	-0.550153	-2.878678	3.118798
H	-1.363906	-1.376015	2.593381
H	0.393798	-1.375728	2.903516
C	0.000000	0.000000	0.000000
C	0.555137	0.661535	1.099446
C	1.444710	1.721658	0.776721
H	0.318072	0.379023	2.136088
C	1.586563	1.890676	-0.612546
S	0.605781	0.721904	-1.486809
C	2.143920	2.554907	1.814609
H	1.870325	2.228851	2.836676
H	1.880882	3.629742	1.726239
H	3.248098	2.482476	1.726228
H	2.196723	2.617806	-1.161575
H	-0.688674	-4.392713	-1.258111
H	1.079084	-4.392347	-0.946272
H	1.063572	-1.440391	0.187654
$end

$rem
JOBTYPE		SP
EXCHANGE	HF
CORRELATION	pRIMP2
BASIS		cc-pvtz
METHOD		rimp2
AUX_BASIS	rimp2-cc-pvtz
SOLVENT_METHOD	PCM
PURECART	11111
SYMMETRY	false
MEM_TOTAL	110000
SCF_CONVERGENCE = 6
THRESH=10
$end

$solvent
dielectric 4.90
$end
--------------------------------------------------------------

             Standard Nuclear Orientation (Angstroms)
    I     Atom           X                Y                Z
 ----------------------------------------------------------------
    1      C       0.1353010000    -3.8667250000    -0.7632280000
    2      C      -0.1060730000    -3.7039630000     0.6033110000
    3      C      -0.1852860000    -2.3570560000     1.0504230000
    4      H      -0.2257830000    -4.5610920000     1.2831880000
    5      C       0.0000000000    -1.4406640000     0.0000000000
    6      S       0.2681870000    -2.2869570000    -1.5210210000
    7      C      -0.4382090000    -1.9787430000     2.4835070000
    8      H      -0.5501530000    -2.8786780000     3.1187980000
    9      H      -1.3639060000    -1.3760150000     2.5933810000
   10      H       0.3937980000    -1.3757280000     2.9035160000
   11      C       0.0000000000     0.0000000000     0.0000000000
   12      C       0.5551370000     0.6615350000     1.0994460000
   13      C       1.4447100000     1.7216580000     0.7767210000
   14      H       0.3180720000     0.3790230000     2.1360880000
   15      C       1.5865630000     1.8906760000    -0.6125460000
   16      S       0.6057810000     0.7219040000    -1.4868090000
   17      C       2.1439200000     2.5549070000     1.8146090000
   18      H       1.8703250000     2.2288510000     2.8366760000
   19      H       1.8808820000     3.6297420000     1.7262390000
   20      H       3.2480980000     2.4824760000     1.7262280000
   21      H       2.1967230000     2.6178060000    -1.1615750000
   22      H      -0.6886740000    -4.3927130000    -1.2581110000
   23      H       1.0790840000    -4.3923470000    -0.9462720000
   24      H       1.0635720000    -1.4403910000     0.1876540000
 ----------------------------------------------------------------

   10   -1180.7222133026      7.53e-07  Convergence criterion met
 Total energy in the final basis set =    -1180.7222133026
        RIMP2         total energy =     -1182.7385220637 a.u.

                    Orbital Energies (a.u.)
 --------------------------------------------------------------

 Alpha MOs
 -- Occupied --
-91.9833 -91.9414 -11.2817 -11.2631 -11.2620 -11.2591 -11.2513 -11.2410
-11.2334 -11.2323 -11.2290 -11.2218  -8.9834  -8.9462  -6.6643  -6.6637
 -6.6631  -6.6276  -6.6265  -6.6253  -1.2055  -1.1526  -1.0603  -1.0326
 -0.9992  -0.9623  -0.9143  -0.9004  -0.8152  -0.7616  -0.7280  -0.7055
 -0.6607  -0.6474  -0.6111  -0.5935  -0.5862  -0.5704  -0.5587  -0.5539
 -0.5434  -0.5360  -0.5231  -0.5043  -0.4826  -0.4801  -0.4652  -0.4367
 -0.3617  -0.3428  -0.3226  -0.2594

          Ground-State Mulliken Net Atomic Charges

     Atom                 Charge (a.u.)
  ----------------------------------------
      1 C                    -0.081549
      2 C                    -0.302772
      3 C                    -0.073053
      4 H                     0.176563
      5 C                     0.111854
      6 S                    -0.186549
      7 C                    -0.294346
      8 H                     0.119150
      9 H                     0.115228
     10 H                     0.098597
     11 C                    -0.037463
     12 C                    -0.278685
     13 C                     0.038142
     14 H                     0.185522
     15 C                    -0.266489
     16 S                     0.021542
     17 C                    -0.269810
     18 H                     0.101131
     19 H                     0.108873
     20 H                     0.106807
     21 H                     0.198556
     22 H                     0.110828
     23 H                     0.110901
     24 H                     0.187021
  ----------------------------------------
  Sum of atomic charges =     0.000000

                    Cartesian Multipole Moments
 -----------------------------------------------------------------
    Charge (ESU x 10^10)
                -0.0000
    Dipole Moment (Debye)
         X       1.5713      Y      -0.2799      Z       3.8447
       Tot       4.1628
    Quadrupole Moments (Debye-Ang)
        XX     -87.2320     XY       4.3090     YY     -77.7964
        XZ       0.2844     YZ      -3.1324     ZZ     -85.6599

 Total job time:  681.34s(wall), 677.32s(cpu)
        *  Thank you very much for using Q-Chem.  Have a nice day.  *
