 Q-Chem 5.4, Q-Chem, Inc., Pleasanton, CA (2021)
 Q-Chem 5.4.0 for Intel X86 EM64T Linux

User input:
--------------------------------------------------------------
$molecule
0 1
C	-0.265779	-3.866725	0.728138
C	0.209225	-3.703963	-0.575726
C	0.364875	-2.357056	-1.002290
H	0.445176	-4.561092	-1.224486
C	0.000000	-1.440664	0.000000
S	-0.528236	-2.286957	1.451343
C	0.862808	-1.978743	-2.369683
H	1.083368	-2.878678	-2.975883
H	1.793522	-1.376015	-2.317142
H	0.116375	-1.375728	-2.927787
C	0.000000	0.000000	0.000000
C	0.747916	0.431772	1.099446
C	1.946425	1.123709	0.776721
H	0.428523	0.247378	2.136088
C	2.137531	1.234018	-0.612546
S	0.816154	0.471179	-1.486809
C	2.888455	1.667564	1.814609
H	2.519842	1.454746	2.836676
H	3.008896	2.767543	1.726239
H	3.901271	1.221850	1.726228
H	2.959587	1.708609	-1.161575
H	0.459743	-4.392713	1.358585
H	-1.227009	-4.392347	0.744515
H	1.014829	-1.440937	0.369490
$end

$rem
JOBTYPE		SP
EXCHANGE	HF
CORRELATION	pRIMP2
BASIS		cc-pvtz
METHOD		rimp2
AUX_BASIS	rimp2-cc-pvtz
SOLVENT_METHOD	PCM
PURECART	11111
SYMMETRY	false
MEM_TOTAL	110000
SCF_CONVERGENCE = 6
THRESH=10
$end

$solvent
dielectric 4.90
$end
--------------------------------------------------------------

             Standard Nuclear Orientation (Angstroms)
    I     Atom           X                Y                Z
 ----------------------------------------------------------------
    1      C      -0.2657790000    -3.8667250000     0.7281380000
    2      C       0.2092250000    -3.7039630000    -0.5757260000
    3      C       0.3648750000    -2.3570560000    -1.0022900000
    4      H       0.4451760000    -4.5610920000    -1.2244860000
    5      C       0.0000000000    -1.4406640000     0.0000000000
    6      S      -0.5282360000    -2.2869570000     1.4513430000
    7      C       0.8628080000    -1.9787430000    -2.3696830000
    8      H       1.0833680000    -2.8786780000    -2.9758830000
    9      H       1.7935220000    -1.3760150000    -2.3171420000
   10      H       0.1163750000    -1.3757280000    -2.9277870000
   11      C       0.0000000000     0.0000000000     0.0000000000
   12      C       0.7479160000     0.4317720000     1.0994460000
   13      C       1.9464250000     1.1237090000     0.7767210000
   14      H       0.4285230000     0.2473780000     2.1360880000
   15      C       2.1375310000     1.2340180000    -0.6125460000
   16      S       0.8161540000     0.4711790000    -1.4868090000
   17      C       2.8884550000     1.6675640000     1.8146090000
   18      H       2.5198420000     1.4547460000     2.8366760000
   19      H       3.0088960000     2.7675430000     1.7262390000
   20      H       3.9012710000     1.2218500000     1.7262280000
   21      H       2.9595870000     1.7086090000    -1.1615750000
   22      H       0.4597430000    -4.3927130000     1.3585850000
   23      H      -1.2270090000    -4.3923470000     0.7445150000
   24      H       1.0148290000    -1.4409370000     0.3694900000
 ----------------------------------------------------------------

   11   -1180.6480874282      7.12e-07  Convergence criterion met
 Total energy in the final basis set =    -1180.6480874282
        RIMP2         total energy =     -1182.6837315863 a.u.

                    Orbital Energies (a.u.)
 --------------------------------------------------------------

 Alpha MOs
 -- Occupied --
-91.9788 -91.9370 -11.2815 -11.2606 -11.2606 -11.2540 -11.2529 -11.2465
-11.2389 -11.2300 -11.2269 -11.2143  -8.9809  -8.9421  -6.6613  -6.6607
 -6.6603  -6.6235  -6.6225  -6.6213  -1.2128  -1.1523  -1.0617  -1.0317
 -1.0073  -0.9538  -0.9130  -0.9068  -0.8031  -0.7747  -0.7276  -0.7015
 -0.6656  -0.6428  -0.6120  -0.5900  -0.5833  -0.5763  -0.5698  -0.5565
 -0.5408  -0.5332  -0.5200  -0.5191  -0.4913  -0.4568  -0.4415  -0.4357
 -0.3529  -0.3321  -0.3257  -0.2579

          Ground-State Mulliken Net Atomic Charges

     Atom                 Charge (a.u.)
  ----------------------------------------
      1 C                    -0.072334
      2 C                    -0.334950
      3 C                    -0.051769
      4 H                     0.175980
      5 C                     0.080629
      6 S                    -0.214674
      7 C                    -0.258309
      8 H                     0.104670
      9 H                     0.104940
     10 H                     0.108997
     11 C                    -0.127223
     12 C                    -0.154735
     13 C                    -0.016990
     14 H                     0.189534
     15 C                    -0.216741
     16 S                     0.050271
     17 C                    -0.266747
     18 H                     0.104447
     19 H                     0.107644
     20 H                     0.103968
     21 H                     0.201685
     22 H                     0.108243
     23 H                     0.111645
     24 H                     0.161817
  ----------------------------------------
  Sum of atomic charges =     0.000000

                    Cartesian Multipole Moments
 -----------------------------------------------------------------
    Charge (ESU x 10^10)
                -0.0000
    Dipole Moment (Debye)
         X       4.0150      Y       0.2641      Z      -1.0202
       Tot       4.1510
    Quadrupole Moments (Debye-Ang)
        XX     -83.0179     XY       2.8715     YY     -83.9046
        XZ       0.4405     YZ       3.0616     ZZ     -84.4714

 Total job time:  776.73s(wall), 774.01s(cpu)
        *  Thank you very much for using Q-Chem.  Have a nice day.  *
