 Q-Chem 5.4, Q-Chem, Inc., Pleasanton, CA (2021)
 Q-Chem 5.4.0 for Intel X86 EM64T Linux

User input:
--------------------------------------------------------------
$molecule
0 1
C	-0.775127	-3.866725	-0.000713
C	0.612565	-3.703963	-0.000302
C	1.066639	-2.357056	0.000067
H	1.302900	-4.561092	-0.000470
C	0.000000	-1.440664	0.000000
S	-1.544483	-2.286957	0.000009
C	2.521872	-1.978743	0.000295
H	3.166949	-2.878678	0.000221
H	2.790821	-1.376015	0.892850
H	2.791023	-1.375728	-0.892005
C	0.000000	0.000000	0.000000
C	0.661577	0.555087	1.099446
C	1.721724	1.444630	0.776721
H	0.379056	0.318032	2.136088
C	1.890772	1.586449	-0.612546
S	0.721935	0.605744	-1.486809
C	2.555004	2.143805	1.814609
H	2.228946	1.870211	2.836676
H	2.482605	3.247987	1.726239
H	3.629830	1.880735	1.726228
H	2.617927	2.196579	-1.161575
H	-1.119411	-4.392713	0.896681
H	-1.119277	-4.392347	-0.898372
H	-0.000115	-1.440937	1.080000
$end

$rem
JOBTYPE		SP
EXCHANGE	HF
CORRELATION	pRIMP2
BASIS		cc-pvtz
METHOD		rimp2
AUX_BASIS	rimp2-cc-pvtz
SOLVENT_METHOD	PCM
PURECART	11111
SYMMETRY	false
MEM_TOTAL	110000
SCF_CONVERGENCE = 6
THRESH=10
$end

$solvent
dielectric 4.90
$end
--------------------------------------------------------------

             Standard Nuclear Orientation (Angstroms)
    I     Atom           X                Y                Z
 ----------------------------------------------------------------
    1      C      -0.7751270000    -3.8667250000    -0.0007130000
    2      C       0.6125650000    -3.7039630000    -0.0003020000
    3      C       1.0666390000    -2.3570560000     0.0000670000
    4      H       1.3029000000    -4.5610920000    -0.0004700000
    5      C       0.0000000000    -1.4406640000     0.0000000000
    6      S      -1.5444830000    -2.2869570000     0.0000090000
    7      C       2.5218720000    -1.9787430000     0.0002950000
    8      H       3.1669490000    -2.8786780000     0.0002210000
    9      H       2.7908210000    -1.3760150000     0.8928500000
   10      H       2.7910230000    -1.3757280000    -0.8920050000
   11      C       0.0000000000     0.0000000000     0.0000000000
   12      C       0.6615770000     0.5550870000     1.0994460000
   13      C       1.7217240000     1.4446300000     0.7767210000
   14      H       0.3790560000     0.3180320000     2.1360880000
   15      C       1.8907720000     1.5864490000    -0.6125460000
   16      S       0.7219350000     0.6057440000    -1.4868090000
   17      C       2.5550040000     2.1438050000     1.8146090000
   18      H       2.2289460000     1.8702110000     2.8366760000
   19      H       2.4826050000     3.2479870000     1.7262390000
   20      H       3.6298300000     1.8807350000     1.7262280000
   21      H       2.6179270000     2.1965790000    -1.1615750000
   22      H      -1.1194110000    -4.3927130000     0.8966810000
   23      H      -1.1192770000    -4.3923470000    -0.8983720000
   24      H      -0.0001150000    -1.4409370000     1.0800000000
 ----------------------------------------------------------------

   10   -1180.7097203965      8.24e-07  Convergence criterion met
 Total energy in the final basis set =    -1180.7097203965
        RIMP2         total energy =     -1182.7291127446 a.u.

                    Orbital Energies (a.u.)
 --------------------------------------------------------------

 Alpha MOs
 -- Occupied --
-91.9795 -91.9316 -11.2822 -11.2612 -11.2592 -11.2585 -11.2531 -11.2497
-11.2359 -11.2317 -11.2281 -11.2159  -8.9801  -8.9366  -6.6609  -6.6602
 -6.6599  -6.6180  -6.6170  -6.6158  -1.2028  -1.1541  -1.0588  -1.0224
 -1.0083  -0.9609  -0.9099  -0.9022  -0.8086  -0.7604  -0.7443  -0.7020
 -0.6572  -0.6371  -0.6122  -0.5917  -0.5817  -0.5736  -0.5657  -0.5512
 -0.5416  -0.5256  -0.5226  -0.5033  -0.4915  -0.4642  -0.4535  -0.4409
 -0.3507  -0.3440  -0.3161  -0.2736

          Ground-State Mulliken Net Atomic Charges

     Atom                 Charge (a.u.)
  ----------------------------------------
      1 C                    -0.074045
      2 C                    -0.328221
      3 C                    -0.029238
      4 H                     0.174828
      5 C                     0.082401
      6 S                    -0.214059
      7 C                    -0.298640
      8 H                     0.122997
      9 H                     0.105654
     10 H                     0.114781
     11 C                    -0.102030
     12 C                    -0.212806
     13 C                     0.028896
     14 H                     0.188005
     15 C                    -0.195535
     16 S                     0.006873
     17 C                    -0.268749
     18 H                     0.103459
     19 H                     0.112282
     20 H                     0.106033
     21 H                     0.200227
     22 H                     0.105601
     23 H                     0.107108
     24 H                     0.164179
  ----------------------------------------
  Sum of atomic charges =     0.000000

                    Cartesian Multipole Moments
 -----------------------------------------------------------------
    Charge (ESU x 10^10)
                -0.0000
    Dipole Moment (Debye)
         X       4.7443      Y       1.0490      Z       2.4522
       Tot       5.4426
    Quadrupole Moments (Debye-Ang)
        XX     -85.1171     XY       1.9764     YY     -81.5446
        XZ       0.2783     YZ      -0.6232     ZZ     -85.5500

 Total job time:  711.36s(wall), 707.59s(cpu)
        *  Thank you very much for using Q-Chem.  Have a nice day.  *
