 Q-Chem 5.4, Q-Chem, Inc., Pleasanton, CA (2021)
 Q-Chem 5.4.0 for Intel X86 EM64T Linux

User input:
--------------------------------------------------------------
$molecule
0 1
C	-0.265779	-3.866725	0.728138
C	0.209225	-3.703963	-0.575726
C	0.364875	-2.357056	-1.002290
H	0.445176	-4.561092	-1.224486
C	-0.000000	-1.440664	-0.000000
S	-0.528236	-2.286957	1.451343
C	0.862808	-1.978743	-2.369683
H	1.083368	-2.878678	-2.975883
H	1.793522	-1.376015	-2.317142
H	0.116375	-1.375728	-2.927787
C	0.000000	0.000000	0.000000
C	0.075300	0.860311	1.099446
C	0.195935	2.238951	0.776721
H	0.043151	0.492916	2.136088
C	0.215188	2.458766	-0.612546
S	0.082160	0.938811	-1.486809
C	0.290762	3.322559	1.814609
H	0.253664	2.898542	2.836676
H	-0.541206	4.052140	1.726239
H	1.236797	3.896558	1.726228
H	0.297938	3.404370	-1.161575
H	0.459743	-4.392713	1.358585
H	-1.227009	-4.392347	0.744515
H	-1.014829	-1.440391	-0.369490
$end

$rem
JOBTYPE		SP
EXCHANGE	HF
CORRELATION	pRIMP2
BASIS		cc-pvtz
METHOD		rimp2
AUX_BASIS	rimp2-cc-pvtz
SOLVENT_METHOD	PCM
PURECART	11111
SYMMETRY	false
MEM_TOTAL	110000
SCF_CONVERGENCE = 6
THRESH=10
$end

$solvent
dielectric 4.90
$end
--------------------------------------------------------------

             Standard Nuclear Orientation (Angstroms)
    I     Atom           X                Y                Z
 ----------------------------------------------------------------
    1      C      -0.2657790000    -3.8667250000     0.7281380000
    2      C       0.2092250000    -3.7039630000    -0.5757260000
    3      C       0.3648750000    -2.3570560000    -1.0022900000
    4      H       0.4451760000    -4.5610920000    -1.2244860000
    5      C       0.0000000000    -1.4406640000     0.0000000000
    6      S      -0.5282360000    -2.2869570000     1.4513430000
    7      C       0.8628080000    -1.9787430000    -2.3696830000
    8      H       1.0833680000    -2.8786780000    -2.9758830000
    9      H       1.7935220000    -1.3760150000    -2.3171420000
   10      H       0.1163750000    -1.3757280000    -2.9277870000
   11      C       0.0000000000     0.0000000000     0.0000000000
   12      C       0.0753000000     0.8603110000     1.0994460000
   13      C       0.1959350000     2.2389510000     0.7767210000
   14      H       0.0431510000     0.4929160000     2.1360880000
   15      C       0.2151880000     2.4587660000    -0.6125460000
   16      S       0.0821600000     0.9388110000    -1.4868090000
   17      C       0.2907620000     3.3225590000     1.8146090000
   18      H       0.2536640000     2.8985420000     2.8366760000
   19      H      -0.5412060000     4.0521400000     1.7262390000
   20      H       1.2367970000     3.8965580000     1.7262280000
   21      H       0.2979380000     3.4043700000    -1.1615750000
   22      H       0.4597430000    -4.3927130000     1.3585850000
   23      H      -1.2270090000    -4.3923470000     0.7445150000
   24      H      -1.0148290000    -1.4403910000    -0.3694900000
 ----------------------------------------------------------------

   10   -1180.7579514058      5.02e-07  Convergence criterion met
 Total energy in the final basis set =    -1180.7579514058
        RIMP2         total energy =     -1182.7635277065 a.u.

                    Orbital Energies (a.u.)
 --------------------------------------------------------------

 Alpha MOs
 -- Occupied --
-91.9816 -91.9463 -11.2890 -11.2661 -11.2614 -11.2550 -11.2496 -11.2440
-11.2327 -11.2314 -11.2274 -11.2230  -8.9817  -8.9508  -6.6627  -6.6621
 -6.6614  -6.6322  -6.6312  -6.6299  -1.2022  -1.1524  -1.0610  -1.0280
 -1.0063  -0.9575  -0.9162  -0.9014  -0.8147  -0.7720  -0.7201  -0.7051
 -0.6574  -0.6468  -0.6108  -0.5936  -0.5812  -0.5717  -0.5685  -0.5534
 -0.5423  -0.5338  -0.5156  -0.5094  -0.4885  -0.4846  -0.4588  -0.4456
 -0.3586  -0.3421  -0.3257  -0.2664

          Ground-State Mulliken Net Atomic Charges

     Atom                 Charge (a.u.)
  ----------------------------------------
      1 C                    -0.073483
      2 C                    -0.318780
      3 C                    -0.061675
      4 H                     0.179049
      5 C                     0.166409
      6 S                    -0.183011
      7 C                    -0.300804
      8 H                     0.119422
      9 H                     0.120234
     10 H                     0.104980
     11 C                    -0.066108
     12 C                    -0.284523
     13 C                     0.033054
     14 H                     0.181498
     15 C                    -0.267742
     16 S                    -0.000074
     17 C                    -0.272827
     18 H                     0.102735
     19 H                     0.108322
     20 H                     0.108137
     21 H                     0.196835
     22 H                     0.112631
     23 H                     0.113130
     24 H                     0.182590
  ----------------------------------------
  Sum of atomic charges =     0.000000

                    Cartesian Multipole Moments
 -----------------------------------------------------------------
    Charge (ESU x 10^10)
                -0.0000
    Dipole Moment (Debye)
         X       0.1729      Y      -0.3534      Z      -1.2203
       Tot       1.2822
    Quadrupole Moments (Debye-Ang)
        XX     -91.4854     XY       1.0807     YY     -73.0718
        XZ      -0.3637     YZ       4.9653     ZZ     -85.8297

 Total job time:  654.14s(wall), 649.75s(cpu)
        *  Thank you very much for using Q-Chem.  Have a nice day.  *
