 Q-Chem 5.4, Q-Chem, Inc., Pleasanton, CA (2021)
 Q-Chem 5.4.0 for Intel X86 EM64T Linux

User input:
--------------------------------------------------------------
$molecule
0 1
C	-0.670924	-3.866725	-0.388181
C	0.530648	-3.703963	0.306020
C	0.923703	-2.357056	0.533378
H	1.128579	-4.561092	0.651043
C	0.000000	-1.440664	0.000000
S	-1.337567	-2.286957	-0.772234
C	2.183857	-1.978743	1.261192
H	2.742548	-2.878678	1.583666
H	1.970497	-1.376015	2.168641
H	2.863099	-1.375728	0.623012
C	0.000000	0.000000	0.000000
C	0.747916	0.431772	1.099446
C	1.946425	1.123709	0.776721
H	0.428523	0.247378	2.136088
C	2.137531	1.234018	-0.612546
S	0.816154	0.471179	-1.486809
C	2.888455	1.667564	1.814609
H	2.519842	1.454746	2.836676
H	3.008896	2.767543	1.726239
H	3.901271	1.221850	1.726228
H	2.959587	1.708609	-1.161575
H	-1.417779	-4.392713	0.216843
H	-0.520136	-4.392347	-1.337652
H	0.540100	-1.440391	-0.935250
$end

$rem
JOBTYPE		SP
EXCHANGE	HF
CORRELATION	pRIMP2
BASIS		cc-pvtz
METHOD		rimp2
AUX_BASIS	rimp2-cc-pvtz
SOLVENT_METHOD	PCM
PURECART	11111
SYMMETRY	false
MEM_TOTAL	110000
SCF_CONVERGENCE = 6
THRESH=10
$end

$solvent
dielectric 4.90
$end
--------------------------------------------------------------

             Standard Nuclear Orientation (Angstroms)
    I     Atom           X                Y                Z
 ----------------------------------------------------------------
    1      C      -0.6709240000    -3.8667250000    -0.3881810000
    2      C       0.5306480000    -3.7039630000     0.3060200000
    3      C       0.9237030000    -2.3570560000     0.5333780000
    4      H       1.1285790000    -4.5610920000     0.6510430000
    5      C       0.0000000000    -1.4406640000     0.0000000000
    6      S      -1.3375670000    -2.2869570000    -0.7722340000
    7      C       2.1838570000    -1.9787430000     1.2611920000
    8      H       2.7425480000    -2.8786780000     1.5836660000
    9      H       1.9704970000    -1.3760150000     2.1686410000
   10      H       2.8630990000    -1.3757280000     0.6230120000
   11      C       0.0000000000     0.0000000000     0.0000000000
   12      C       0.7479160000     0.4317720000     1.0994460000
   13      C       1.9464250000     1.1237090000     0.7767210000
   14      H       0.4285230000     0.2473780000     2.1360880000
   15      C       2.1375310000     1.2340180000    -0.6125460000
   16      S       0.8161540000     0.4711790000    -1.4868090000
   17      C       2.8884550000     1.6675640000     1.8146090000
   18      H       2.5198420000     1.4547460000     2.8366760000
   19      H       3.0088960000     2.7675430000     1.7262390000
   20      H       3.9012710000     1.2218500000     1.7262280000
   21      H       2.9595870000     1.7086090000    -1.1615750000
   22      H      -1.4177790000    -4.3927130000     0.2168430000
   23      H      -0.5201360000    -4.3923470000    -1.3376520000
   24      H       0.5401000000    -1.4403910000    -0.9352500000
 ----------------------------------------------------------------

   10   -1180.6687937758      9.05e-07  Convergence criterion met
 Total energy in the final basis set =    -1180.6687937758
        RIMP2         total energy =     -1182.6956047013 a.u.

                    Orbital Energies (a.u.)
 --------------------------------------------------------------

 Alpha MOs
 -- Occupied --
-91.9763 -91.9308 -11.2881 -11.2646 -11.2587 -11.2546 -11.2527 -11.2452
-11.2355 -11.2323 -11.2295 -11.2141  -8.9783  -8.9359  -6.6591  -6.6582
 -6.6579  -6.6173  -6.6163  -6.6151  -1.2107  -1.1533  -1.0619  -1.0286
 -0.9996  -0.9685  -0.9126  -0.9009  -0.8037  -0.7608  -0.7558  -0.7105
 -0.6475  -0.6319  -0.6162  -0.5909  -0.5818  -0.5775  -0.5657  -0.5564
 -0.5445  -0.5302  -0.5246  -0.5085  -0.4832  -0.4685  -0.4496  -0.4365
 -0.3510  -0.3450  -0.3218  -0.2610

          Ground-State Mulliken Net Atomic Charges

     Atom                 Charge (a.u.)
  ----------------------------------------
      1 C                    -0.070852
      2 C                    -0.340217
      3 C                    -0.038379
      4 H                     0.174640
      5 C                     0.106376
      6 S                    -0.223923
      7 C                    -0.309988
      8 H                     0.122593
      9 H                     0.108604
     10 H                     0.113644
     11 C                    -0.168232
     12 C                    -0.126778
     13 C                    -0.032179
     14 H                     0.197349
     15 C                    -0.164728
     16 S                    -0.002888
     17 C                    -0.276940
     18 H                     0.105899
     19 H                     0.122544
     20 H                     0.106888
     21 H                     0.203178
     22 H                     0.107136
     23 H                     0.105952
     24 H                     0.180301
  ----------------------------------------
  Sum of atomic charges =     0.000000

                    Cartesian Multipole Moments
 -----------------------------------------------------------------
    Charge (ESU x 10^10)
                -0.0000
    Dipole Moment (Debye)
         X       5.3275      Y       0.8195      Z       2.5653
       Tot       5.9695
    Quadrupole Moments (Debye-Ang)
        XX     -82.8967     XY       1.3518     YY     -84.0748
        XZ       0.5351     YZ      -0.0770     ZZ     -85.0822

 Total job time:  742.62s(wall), 739.61s(cpu)
        *  Thank you very much for using Q-Chem.  Have a nice day.  *
