 Q-Chem 5.4, Q-Chem, Inc., Pleasanton, CA (2021)
 Q-Chem 5.4.0 for Intel X86 EM64T Linux

User input:
--------------------------------------------------------------
$molecule
0 1
C	-0.264439	-3.866725	-0.728625
C	0.209794	-3.703963	0.575519
C	0.364749	-2.357056	1.002336
H	0.446060	-4.561092	1.224165
C	0.000000	-1.440664	0.000000
S	-0.528253	-2.286957	-1.451336
C	0.862253	-1.978743	2.369885
H	1.082953	-2.878678	2.976034
H	0.115513	-1.376015	2.927887
H	1.792797	-1.375728	2.317620
C	0.000000	0.000000	0.000000
C	0.747916	0.431772	1.099446
C	1.946425	1.123709	0.776721
H	0.428523	0.247378	2.136088
C	2.137531	1.234018	-0.612546
S	0.816154	0.471179	-1.486809
C	2.888455	1.667564	1.814609
H	2.519842	1.454746	2.836676
H	3.008896	2.767543	1.726239
H	3.901271	1.221850	1.726228
H	2.959587	1.708609	-1.161575
H	-1.225465	-4.392713	-0.745219
H	0.461378	-4.392347	-1.359038
H	1.014907	-1.440391	-0.369273
$end

$rem
JOBTYPE		SP
EXCHANGE	HF
CORRELATION	pRIMP2
BASIS		cc-pvtz
METHOD		rimp2
AUX_BASIS	rimp2-cc-pvtz
SOLVENT_METHOD	PCM
PURECART	11111
SYMMETRY	false
MEM_TOTAL	110000
SCF_CONVERGENCE = 6
THRESH=10
$end

$solvent
dielectric 4.90
$end
--------------------------------------------------------------

             Standard Nuclear Orientation (Angstroms)
    I     Atom           X                Y                Z
 ----------------------------------------------------------------
    1      C      -0.2644390000    -3.8667250000    -0.7286250000
    2      C       0.2097940000    -3.7039630000     0.5755190000
    3      C       0.3647490000    -2.3570560000     1.0023360000
    4      H       0.4460600000    -4.5610920000     1.2241650000
    5      C       0.0000000000    -1.4406640000     0.0000000000
    6      S      -0.5282530000    -2.2869570000    -1.4513360000
    7      C       0.8622530000    -1.9787430000     2.3698850000
    8      H       1.0829530000    -2.8786780000     2.9760340000
    9      H       0.1155130000    -1.3760150000     2.9278870000
   10      H       1.7927970000    -1.3757280000     2.3176200000
   11      C       0.0000000000     0.0000000000     0.0000000000
   12      C       0.7479160000     0.4317720000     1.0994460000
   13      C       1.9464250000     1.1237090000     0.7767210000
   14      H       0.4285230000     0.2473780000     2.1360880000
   15      C       2.1375310000     1.2340180000    -0.6125460000
   16      S       0.8161540000     0.4711790000    -1.4868090000
   17      C       2.8884550000     1.6675640000     1.8146090000
   18      H       2.5198420000     1.4547460000     2.8366760000
   19      H       3.0088960000     2.7675430000     1.7262390000
   20      H       3.9012710000     1.2218500000     1.7262280000
   21      H       2.9595870000     1.7086090000    -1.1615750000
   22      H      -1.2254650000    -4.3927130000    -0.7452190000
   23      H       0.4613780000    -4.3923470000    -1.3590380000
   24      H       1.0149070000    -1.4403910000    -0.3692730000
 ----------------------------------------------------------------

   11   -1180.6729179290      5.14e-07  Convergence criterion met
 Total energy in the final basis set =    -1180.6729179290
        RIMP2         total energy =     -1182.7011913623 a.u.

                    Orbital Energies (a.u.)
 --------------------------------------------------------------

 Alpha MOs
 -- Occupied --
-91.9754 -91.9345 -11.2843 -11.2616 -11.2614 -11.2563 -11.2536 -11.2504
-11.2392 -11.2331 -11.2315 -11.2180  -8.9771  -8.9399  -6.6579  -6.6570
 -6.6567  -6.6213  -6.6203  -6.6191  -1.2131  -1.1535  -1.0622  -1.0354
 -0.9968  -0.9661  -0.9147  -0.9027  -0.8086  -0.7627  -0.7419  -0.7111
 -0.6524  -0.6452  -0.6132  -0.5988  -0.5832  -0.5719  -0.5634  -0.5505
 -0.5493  -0.5371  -0.5279  -0.5078  -0.4803  -0.4728  -0.4471  -0.4367
 -0.3582  -0.3391  -0.3243  -0.2615

          Ground-State Mulliken Net Atomic Charges

     Atom                 Charge (a.u.)
  ----------------------------------------
      1 C                    -0.076599
      2 C                    -0.321547
      3 C                    -0.056455
      4 H                     0.176000
      5 C                     0.098843
      6 S                    -0.197892
      7 C                    -0.277441
      8 H                     0.117494
      9 H                     0.100782
     10 H                     0.104869
     11 C                    -0.111892
     12 C                    -0.198658
     13 C                     0.001903
     14 H                     0.198909
     15 C                    -0.196953
     16 S                     0.012849
     17 C                    -0.279990
     18 H                     0.104291
     19 H                     0.118605
     20 H                     0.108141
     21 H                     0.201593
     22 H                     0.112551
     23 H                     0.108771
     24 H                     0.151825
  ----------------------------------------
  Sum of atomic charges =     0.000000

                    Cartesian Multipole Moments
 -----------------------------------------------------------------
    Charge (ESU x 10^10)
                -0.0000
    Dipole Moment (Debye)
         X       3.9810      Y       0.1136      Z       3.8234
       Tot       5.5209
    Quadrupole Moments (Debye-Ang)
        XX     -82.8459     XY       3.0077     YY     -82.2041
        XZ       0.3579     YZ      -2.3796     ZZ     -85.1841

 Total job time:  787.29s(wall), 784.57s(cpu)
        *  Thank you very much for using Q-Chem.  Have a nice day.  *
