 Q-Chem 5.4, Q-Chem, Inc., Pleasanton, CA (2021)
 Q-Chem 5.4.0 for Intel X86 EM64T Linux

User input:
--------------------------------------------------------------
$molecule
0 1
C	-0.763475	-3.866725	0.133897
C	0.603206	-3.703963	-0.106669
C	1.050446	-2.357056	-0.185154
H	1.283024	-4.561092	-0.226709
C	-0.000000	-1.440664	-0.000000
S	-1.521018	-2.286957	0.268206
C	2.483610	-1.978743	-0.437628
H	3.118875	-2.878678	-0.549717
H	2.903464	-1.376015	0.394664
H	2.593726	-1.375728	-1.363110
C	0.000000	0.000000	0.000000
C	0.555137	0.661535	1.099446
C	1.444710	1.721658	0.776721
H	0.318072	0.379023	2.136088
C	1.586563	1.890676	-0.612546
S	0.605781	0.721904	-1.486809
C	2.143920	2.554907	1.814609
H	1.870325	2.228851	2.836676
H	1.880882	3.629742	1.726239
H	3.248098	2.482476	1.726228
H	2.196723	2.617806	-1.161575
H	-0.946698	-4.392713	1.077442
H	-1.258274	-4.392347	-0.690363
H	0.187427	-1.440937	1.063612
$end

$rem
JOBTYPE		SP
EXCHANGE	HF
CORRELATION	pRIMP2
BASIS		cc-pvtz
METHOD		rimp2
AUX_BASIS	rimp2-cc-pvtz
SOLVENT_METHOD	PCM
PURECART	11111
SYMMETRY	false
MEM_TOTAL	110000
SCF_CONVERGENCE = 6
THRESH=10
$end

$solvent
dielectric 4.90
$end
--------------------------------------------------------------

             Standard Nuclear Orientation (Angstroms)
    I     Atom           X                Y                Z
 ----------------------------------------------------------------
    1      C      -0.7634750000    -3.8667250000     0.1338970000
    2      C       0.6032060000    -3.7039630000    -0.1066690000
    3      C       1.0504460000    -2.3570560000    -0.1851540000
    4      H       1.2830240000    -4.5610920000    -0.2267090000
    5      C       0.0000000000    -1.4406640000     0.0000000000
    6      S      -1.5210180000    -2.2869570000     0.2682060000
    7      C       2.4836100000    -1.9787430000    -0.4376280000
    8      H       3.1188750000    -2.8786780000    -0.5497170000
    9      H       2.9034640000    -1.3760150000     0.3946640000
   10      H       2.5937260000    -1.3757280000    -1.3631100000
   11      C       0.0000000000     0.0000000000     0.0000000000
   12      C       0.5551370000     0.6615350000     1.0994460000
   13      C       1.4447100000     1.7216580000     0.7767210000
   14      H       0.3180720000     0.3790230000     2.1360880000
   15      C       1.5865630000     1.8906760000    -0.6125460000
   16      S       0.6057810000     0.7219040000    -1.4868090000
   17      C       2.1439200000     2.5549070000     1.8146090000
   18      H       1.8703250000     2.2288510000     2.8366760000
   19      H       1.8808820000     3.6297420000     1.7262390000
   20      H       3.2480980000     2.4824760000     1.7262280000
   21      H       2.1967230000     2.6178060000    -1.1615750000
   22      H      -0.9466980000    -4.3927130000     1.0774420000
   23      H      -1.2582740000    -4.3923470000    -0.6903630000
   24      H       0.1874270000    -1.4409370000     1.0636120000
 ----------------------------------------------------------------

   10   -1180.7273585436      7.22e-07  Convergence criterion met
 Total energy in the final basis set =    -1180.7273585436
        RIMP2         total energy =     -1182.7421485036 a.u.

                    Orbital Energies (a.u.)
 --------------------------------------------------------------

 Alpha MOs
 -- Occupied --
-91.9807 -91.9341 -11.2754 -11.2693 -11.2610 -11.2529 -11.2517 -11.2509
-11.2373 -11.2309 -11.2287 -11.2168  -8.9810  -8.9392  -6.6619  -6.6612
 -6.6608  -6.6205  -6.6195  -6.6183  -1.2005  -1.1541  -1.0584  -1.0227
 -1.0082  -0.9602  -0.9099  -0.9024  -0.8099  -0.7620  -0.7404  -0.7013
 -0.6591  -0.6382  -0.6108  -0.5897  -0.5801  -0.5737  -0.5664  -0.5512
 -0.5419  -0.5269  -0.5204  -0.5035  -0.4931  -0.4666  -0.4584  -0.4434
 -0.3519  -0.3442  -0.3154  -0.2739

          Ground-State Mulliken Net Atomic Charges

     Atom                 Charge (a.u.)
  ----------------------------------------
      1 C                    -0.074347
      2 C                    -0.329920
      3 C                    -0.030894
      4 H                     0.175489
      5 C                     0.076071
      6 S                    -0.203296
      7 C                    -0.283631
      8 H                     0.118908
      9 H                     0.104394
     10 H                     0.112597
     11 C                    -0.074584
     12 C                    -0.229877
     13 C                     0.026877
     14 H                     0.182985
     15 C                    -0.213399
     16 S                     0.007287
     17 C                    -0.268799
     18 H                     0.102699
     19 H                     0.108986
     20 H                     0.106583
     21 H                     0.198679
     22 H                     0.107218
     23 H                     0.108377
     24 H                     0.171597
  ----------------------------------------
  Sum of atomic charges =     0.000000

                    Cartesian Multipole Moments
 -----------------------------------------------------------------
    Charge (ESU x 10^10)
                -0.0000
    Dipole Moment (Debye)
         X       4.2193      Y       0.9488      Z       1.8930
       Tot       4.7208
    Quadrupole Moments (Debye-Ang)
        XX     -87.5117     XY       1.5625     YY     -79.2252
        XZ       0.2804     YZ       0.2146     ZZ     -85.5212

 Total job time:  728.81s(wall), 725.72s(cpu)
        *  Thank you very much for using Q-Chem.  Have a nice day.  *
