 Q-Chem 5.4, Q-Chem, Inc., Pleasanton, CA (2021)
 Q-Chem 5.4.0 for Intel X86 EM64T Linux

User input:
--------------------------------------------------------------
$molecule
0 1
C	0.671636	-3.866725	-0.386946
C	-0.530345	-3.703963	0.306544
C	-0.923770	-2.357056	0.533261
H	-1.128109	-4.561092	0.651857
C	0.000000	-1.440664	0.000000
S	1.337557	-2.286957	-0.772250
C	-2.184153	-1.978743	1.260680
H	-2.742769	-2.878678	1.583283
H	-2.863347	-1.376015	0.622180
H	-1.971094	-1.375728	2.168011
C	0.000000	0.000000	0.000000
C	0.661577	0.555087	1.099446
C	1.721724	1.444630	0.776721
H	0.379056	0.318032	2.136088
C	1.890772	1.586449	-0.612546
S	0.721935	0.605744	-1.486809
C	2.555004	2.143805	1.814609
H	2.228946	1.870211	2.836676
H	2.482605	3.247987	1.726239
H	3.629830	1.880735	1.726228
H	2.617927	2.196579	-1.161575
H	0.521098	-4.392713	-1.336254
H	1.418509	-4.392347	0.218374
H	-0.539900	-1.440937	-0.935365
$end

$rem
JOBTYPE		SP
EXCHANGE	HF
CORRELATION	pRIMP2
BASIS		cc-pvtz
METHOD		rimp2
AUX_BASIS	rimp2-cc-pvtz
SOLVENT_METHOD	PCM
PURECART	11111
SYMMETRY	false
MEM_TOTAL	110000
SCF_CONVERGENCE = 6
THRESH=10
$end

$solvent
dielectric 4.90
$end
--------------------------------------------------------------

             Standard Nuclear Orientation (Angstroms)
    I     Atom           X                Y                Z
 ----------------------------------------------------------------
    1      C       0.6716360000    -3.8667250000    -0.3869460000
    2      C      -0.5303450000    -3.7039630000     0.3065440000
    3      C      -0.9237700000    -2.3570560000     0.5332610000
    4      H      -1.1281090000    -4.5610920000     0.6518570000
    5      C       0.0000000000    -1.4406640000     0.0000000000
    6      S       1.3375570000    -2.2869570000    -0.7722500000
    7      C      -2.1841530000    -1.9787430000     1.2606800000
    8      H      -2.7427690000    -2.8786780000     1.5832830000
    9      H      -2.8633470000    -1.3760150000     0.6221800000
   10      H      -1.9710940000    -1.3757280000     2.1680110000
   11      C       0.0000000000     0.0000000000     0.0000000000
   12      C       0.6615770000     0.5550870000     1.0994460000
   13      C       1.7217240000     1.4446300000     0.7767210000
   14      H       0.3790560000     0.3180320000     2.1360880000
   15      C       1.8907720000     1.5864490000    -0.6125460000
   16      S       0.7219350000     0.6057440000    -1.4868090000
   17      C       2.5550040000     2.1438050000     1.8146090000
   18      H       2.2289460000     1.8702110000     2.8366760000
   19      H       2.4826050000     3.2479870000     1.7262390000
   20      H       3.6298300000     1.8807350000     1.7262280000
   21      H       2.6179270000     2.1965790000    -1.1615750000
   22      H       0.5210980000    -4.3927130000    -1.3362540000
   23      H       1.4185090000    -4.3923470000     0.2183740000
   24      H      -0.5399000000    -1.4409370000    -0.9353650000
 ----------------------------------------------------------------

   10   -1180.7063871095      7.17e-07  Convergence criterion met
 Total energy in the final basis set =    -1180.7063871095
        RIMP2         total energy =     -1182.7233136603 a.u.

                    Orbital Energies (a.u.)
 --------------------------------------------------------------

 Alpha MOs
 -- Occupied --
-91.9826 -91.9341 -11.2823 -11.2578 -11.2565 -11.2522 -11.2511 -11.2490
-11.2355 -11.2299 -11.2295 -11.2129  -8.9831  -8.9391  -6.6640  -6.6632
 -6.6629  -6.6204  -6.6194  -6.6181  -1.2007  -1.1534  -1.0572  -1.0266
 -0.9989  -0.9649  -0.9084  -0.9012  -0.8109  -0.7553  -0.7478  -0.7034
 -0.6499  -0.6290  -0.6129  -0.5876  -0.5805  -0.5721  -0.5652  -0.5514
 -0.5415  -0.5323  -0.5087  -0.5060  -0.4884  -0.4714  -0.4588  -0.4433
 -0.3567  -0.3324  -0.3181  -0.2689

          Ground-State Mulliken Net Atomic Charges

     Atom                 Charge (a.u.)
  ----------------------------------------
      1 C                    -0.084563
      2 C                    -0.328451
      3 C                    -0.059661
      4 H                     0.172727
      5 C                     0.061768
      6 S                    -0.177296
      7 C                    -0.273430
      8 H                     0.112467
      9 H                     0.103570
     10 H                     0.102895
     11 C                    -0.145983
     12 C                    -0.124944
     13 C                    -0.010097
     14 H                     0.192037
     15 C                    -0.184181
     16 S                     0.016993
     17 C                    -0.269494
     18 H                     0.102104
     19 H                     0.107378
     20 H                     0.107021
     21 H                     0.201610
     22 H                     0.105451
     23 H                     0.109563
     24 H                     0.162517
  ----------------------------------------
  Sum of atomic charges =     0.000000

                    Cartesian Multipole Moments
 -----------------------------------------------------------------
    Charge (ESU x 10^10)
                -0.0000
    Dipole Moment (Debye)
         X      -0.2099      Y       1.1072      Z       2.0456
       Tot       2.3355
    Quadrupole Moments (Debye-Ang)
        XX     -84.9729     XY       9.9657     YY     -81.8770
        XZ       0.2021     YZ      -0.1382     ZZ     -84.9856

 Total job time:  663.81s(wall), 661.23s(cpu)
        *  Thank you very much for using Q-Chem.  Have a nice day.  *
