 Q-Chem 5.4, Q-Chem, Inc., Pleasanton, CA (2021)
 Q-Chem 5.4.0 for Intel X86 EM64T Linux

User input:
--------------------------------------------------------------
$molecule
0 1
C	-0.497696	-3.866725	-0.594240
C	0.393981	-3.703963	0.469057
C	0.685571	-2.357056	0.817136
H	0.837848	-4.561092	0.997777
C	0.000000	-1.440664	0.000000
S	-0.992782	-2.286957	-1.183137
C	1.620802	-1.978743	1.932056
H	2.035506	-2.878678	2.426166
H	1.109943	-1.376015	2.711806
H	2.477350	-1.375728	1.564678
C	0.000000	0.000000	0.000000
C	0.431829	0.747884	1.099446
C	1.123799	1.946373	0.776721
H	0.247423	0.428497	2.136088
C	1.234147	2.137457	-0.612546
S	0.471221	0.816130	-1.486809
C	1.667694	2.888380	1.814609
H	1.454874	2.519768	2.836676
H	1.222009	3.901210	1.726239
H	2.767675	3.008788	1.726228
H	1.708773	2.959493	-1.161575
H	-1.406441	-4.392713	-0.281143
H	-0.031265	-4.392347	-1.434879
H	-0.827402	-1.440937	0.694122
$end

$rem
JOBTYPE		SP
EXCHANGE	HF
CORRELATION	pRIMP2
BASIS		cc-pvtz
METHOD		rimp2
AUX_BASIS	rimp2-cc-pvtz
SOLVENT_METHOD	PCM
PURECART	11111
SYMMETRY	false
MEM_TOTAL	110000
SCF_CONVERGENCE = 6
THRESH=10
$end

$solvent
dielectric 4.90
$end
--------------------------------------------------------------

             Standard Nuclear Orientation (Angstroms)
    I     Atom           X                Y                Z
 ----------------------------------------------------------------
    1      C      -0.4976960000    -3.8667250000    -0.5942400000
    2      C       0.3939810000    -3.7039630000     0.4690570000
    3      C       0.6855710000    -2.3570560000     0.8171360000
    4      H       0.8378480000    -4.5610920000     0.9977770000
    5      C       0.0000000000    -1.4406640000     0.0000000000
    6      S      -0.9927820000    -2.2869570000    -1.1831370000
    7      C       1.6208020000    -1.9787430000     1.9320560000
    8      H       2.0355060000    -2.8786780000     2.4261660000
    9      H       1.1099430000    -1.3760150000     2.7118060000
   10      H       2.4773500000    -1.3757280000     1.5646780000
   11      C       0.0000000000     0.0000000000     0.0000000000
   12      C       0.4318290000     0.7478840000     1.0994460000
   13      C       1.1237990000     1.9463730000     0.7767210000
   14      H       0.2474230000     0.4284970000     2.1360880000
   15      C       1.2341470000     2.1374570000    -0.6125460000
   16      S       0.4712210000     0.8161300000    -1.4868090000
   17      C       1.6676940000     2.8883800000     1.8146090000
   18      H       1.4548740000     2.5197680000     2.8366760000
   19      H       1.2220090000     3.9012100000     1.7262390000
   20      H       2.7676750000     3.0087880000     1.7262280000
   21      H       1.7087730000     2.9594930000    -1.1615750000
   22      H      -1.4064410000    -4.3927130000    -0.2811430000
   23      H      -0.0312650000    -4.3923470000    -1.4348790000
   24      H      -0.8274020000    -1.4409370000     0.6941220000
 ----------------------------------------------------------------

   10   -1180.7399646265      6.08e-07  Convergence criterion met
 Total energy in the final basis set =    -1180.7399646265
        RIMP2         total energy =     -1182.7522275168 a.u.

                    Orbital Energies (a.u.)
 --------------------------------------------------------------

 Alpha MOs
 -- Occupied --
-91.9796 -91.9417 -11.2771 -11.2658 -11.2638 -11.2557 -11.2515 -11.2426
-11.2413 -11.2317 -11.2296 -11.2195  -8.9797  -8.9463  -6.6606  -6.6600
 -6.6595  -6.6278  -6.6268  -6.6255  -1.2001  -1.1534  -1.0587  -1.0286
 -1.0022  -0.9625  -0.9129  -0.9009  -0.8148  -0.7610  -0.7310  -0.7084
 -0.6558  -0.6441  -0.6110  -0.5916  -0.5874  -0.5710  -0.5594  -0.5541
 -0.5413  -0.5324  -0.5209  -0.5075  -0.4826  -0.4730  -0.4628  -0.4450
 -0.3557  -0.3418  -0.3213  -0.2688

          Ground-State Mulliken Net Atomic Charges

     Atom                 Charge (a.u.)
  ----------------------------------------
      1 C                    -0.073398
      2 C                    -0.323218
      3 C                    -0.064150
      4 H                     0.177882
      5 C                     0.108305
      6 S                    -0.180774
      7 C                    -0.286548
      8 H                     0.120264
      9 H                     0.096351
     10 H                     0.116154
     11 C                    -0.047333
     12 C                    -0.301838
     13 C                     0.048893
     14 H                     0.193185
     15 C                    -0.243415
     16 S                     0.013617
     17 C                    -0.271546
     18 H                     0.101510
     19 H                     0.109261
     20 H                     0.107899
     21 H                     0.196511
     22 H                     0.109838
     23 H                     0.110821
     24 H                     0.181729
  ----------------------------------------
  Sum of atomic charges =     0.000000

                    Cartesian Multipole Moments
 -----------------------------------------------------------------
    Charge (ESU x 10^10)
                -0.0000
    Dipole Moment (Debye)
         X       1.9227      Y       0.3114      Z       3.9644
       Tot       4.4170
    Quadrupole Moments (Debye-Ang)
        XX     -88.7101     XY       3.5645     YY     -76.2742
        XZ       0.7159     YZ      -2.6292     ZZ     -86.2590

 Total job time:  665.86s(wall), 662.22s(cpu)
        *  Thank you very much for using Q-Chem.  Have a nice day.  *
