 Q-Chem 5.4, Q-Chem, Inc., Pleasanton, CA (2021)
 Q-Chem 5.4.0 for Intel X86 EM64T Linux

User input:
--------------------------------------------------------------
$molecule
0 1
C	-0.671636	-3.866725	0.386946
C	0.530345	-3.703963	-0.306544
C	0.923770	-2.357056	-0.533261
H	1.128109	-4.561092	-0.651857
C	-0.000000	-1.440664	-0.000000
S	-1.337557	-2.286957	0.772250
C	2.184153	-1.978743	-1.260680
H	2.742769	-2.878678	-1.583283
H	2.863347	-1.376015	-0.622180
H	1.971094	-1.375728	-2.168011
C	0.000000	0.000000	0.000000
C	0.149995	0.850475	1.099446
C	0.390327	2.213354	0.776721
H	0.085947	0.487279	2.136088
C	0.428665	2.430655	-0.612546
S	0.163670	0.928078	-1.486809
C	0.579235	3.284574	1.814609
H	0.505323	2.865404	2.836676
H	-0.185980	4.083890	1.726239
H	1.571698	3.773937	1.726228
H	0.593515	3.365448	-1.161575
H	-0.521098	-4.392713	1.336254
H	-1.418509	-4.392347	-0.218374
H	0.539900	-1.440937	0.935365
$end

$rem
JOBTYPE		SP
EXCHANGE	HF
CORRELATION	pRIMP2
BASIS		cc-pvtz
METHOD		rimp2
AUX_BASIS	rimp2-cc-pvtz
SOLVENT_METHOD	PCM
PURECART	11111
SYMMETRY	false
MEM_TOTAL	110000
SCF_CONVERGENCE = 6
THRESH=10
$end

$solvent
dielectric 4.90
$end
--------------------------------------------------------------

             Standard Nuclear Orientation (Angstroms)
    I     Atom           X                Y                Z
 ----------------------------------------------------------------
    1      C      -0.6716360000    -3.8667250000     0.3869460000
    2      C       0.5303450000    -3.7039630000    -0.3065440000
    3      C       0.9237700000    -2.3570560000    -0.5332610000
    4      H       1.1281090000    -4.5610920000    -0.6518570000
    5      C       0.0000000000    -1.4406640000     0.0000000000
    6      S      -1.3375570000    -2.2869570000     0.7722500000
    7      C       2.1841530000    -1.9787430000    -1.2606800000
    8      H       2.7427690000    -2.8786780000    -1.5832830000
    9      H       2.8633470000    -1.3760150000    -0.6221800000
   10      H       1.9710940000    -1.3757280000    -2.1680110000
   11      C       0.0000000000     0.0000000000     0.0000000000
   12      C       0.1499950000     0.8504750000     1.0994460000
   13      C       0.3903270000     2.2133540000     0.7767210000
   14      H       0.0859470000     0.4872790000     2.1360880000
   15      C       0.4286650000     2.4306550000    -0.6125460000
   16      S       0.1636700000     0.9280780000    -1.4868090000
   17      C       0.5792350000     3.2845740000     1.8146090000
   18      H       0.5053230000     2.8654040000     2.8366760000
   19      H      -0.1859800000     4.0838900000     1.7262390000
   20      H       1.5716980000     3.7739370000     1.7262280000
   21      H       0.5935150000     3.3654480000    -1.1615750000
   22      H      -0.5210980000    -4.3927130000     1.3362540000
   23      H      -1.4185090000    -4.3923470000    -0.2183740000
   24      H       0.5399000000    -1.4409370000     0.9353650000
 ----------------------------------------------------------------

   10   -1180.7593624759      5.01e-07  Convergence criterion met
 Total energy in the final basis set =    -1180.7593624759
        RIMP2         total energy =     -1182.7652753762 a.u.

                    Orbital Energies (a.u.)
 --------------------------------------------------------------

 Alpha MOs
 -- Occupied --
-91.9818 -91.9414 -11.2837 -11.2638 -11.2618 -11.2561 -11.2509 -11.2412
-11.2401 -11.2312 -11.2290 -11.2202  -8.9817  -8.9462  -6.6626  -6.6620
 -6.6615  -6.6275  -6.6265  -6.6252  -1.1992  -1.1533  -1.0587  -1.0255
 -1.0074  -0.9583  -0.9127  -0.9013  -0.8141  -0.7660  -0.7311  -0.7005
 -0.6619  -0.6419  -0.6104  -0.5873  -0.5799  -0.5730  -0.5674  -0.5516
 -0.5421  -0.5314  -0.5149  -0.5058  -0.4927  -0.4801  -0.4588  -0.4487
 -0.3555  -0.3434  -0.3167  -0.2738

          Ground-State Mulliken Net Atomic Charges

     Atom                 Charge (a.u.)
  ----------------------------------------
      1 C                    -0.077445
      2 C                    -0.325572
      3 C                    -0.020628
      4 H                     0.177130
      5 C                     0.076618
      6 S                    -0.178160
      7 C                    -0.273104
      8 H                     0.114695
      9 H                     0.106525
     10 H                     0.108217
     11 C                    -0.064733
     12 C                    -0.256130
     13 C                     0.026609
     14 H                     0.183236
     15 C                    -0.247060
     16 S                     0.007494
     17 C                    -0.271440
     18 H                     0.102376
     19 H                     0.108621
     20 H                     0.107821
     21 H                     0.196223
     22 H                     0.110596
     23 H                     0.112822
     24 H                     0.175287
  ----------------------------------------
  Sum of atomic charges =     0.000000

                    Cartesian Multipole Moments
 -----------------------------------------------------------------
    Charge (ESU x 10^10)
                -0.0000
    Dipole Moment (Debye)
         X       2.8321      Y       0.3468      Z       0.9347
       Tot       3.0024
    Quadrupole Moments (Debye-Ang)
        XX     -91.6979     XY      -2.1052     YY     -74.1474
        XZ      -0.0254     YZ       1.7542     ZZ     -85.6699

 Total job time:  655.48s(wall), 649.30s(cpu)
        *  Thank you very much for using Q-Chem.  Have a nice day.  *
