 Q-Chem 5.4, Q-Chem, Inc., Pleasanton, CA (2021)
 Q-Chem 5.4.0 for Intel X86 EM64T Linux

User input:
--------------------------------------------------------------
$molecule
0 1
C	0.386946	-3.866725	0.671636
C	-0.306544	-3.703963	-0.530345
C	-0.533261	-2.357056	-0.923770
H	-0.651857	-4.561092	-1.128109
C	0.000000	-1.440664	0.000000
S	0.772250	-2.286957	1.337557
C	-1.260680	-1.978743	-2.184153
H	-1.583283	-2.878678	-2.742769
H	-0.622180	-1.376015	-2.863347
H	-2.168011	-1.375728	-1.971094
C	0.000000	0.000000	0.000000
C	0.747916	0.431772	1.099446
C	1.946425	1.123709	0.776721
H	0.428523	0.247378	2.136088
C	2.137531	1.234018	-0.612546
S	0.816154	0.471179	-1.486809
C	2.888455	1.667564	1.814609
H	2.519842	1.454746	2.836676
H	3.008896	2.767543	1.726239
H	3.901271	1.221850	1.726228
H	2.959587	1.708609	-1.161575
H	1.336254	-4.392713	0.521098
H	-0.218374	-4.392347	1.418509
H	0.935365	-1.440937	-0.539900
$end

$rem
JOBTYPE		SP
EXCHANGE	HF
CORRELATION	pRIMP2
BASIS		cc-pvtz
METHOD		rimp2
AUX_BASIS	rimp2-cc-pvtz
SOLVENT_METHOD	PCM
PURECART	11111
SYMMETRY	false
MEM_TOTAL	110000
SCF_CONVERGENCE = 6
THRESH=10
$end

$solvent
dielectric 4.90
$end
--------------------------------------------------------------

             Standard Nuclear Orientation (Angstroms)
    I     Atom           X                Y                Z
 ----------------------------------------------------------------
    1      C       0.3869460000    -3.8667250000     0.6716360000
    2      C      -0.3065440000    -3.7039630000    -0.5303450000
    3      C      -0.5332610000    -2.3570560000    -0.9237700000
    4      H      -0.6518570000    -4.5610920000    -1.1281090000
    5      C       0.0000000000    -1.4406640000     0.0000000000
    6      S       0.7722500000    -2.2869570000     1.3375570000
    7      C      -1.2606800000    -1.9787430000    -2.1841530000
    8      H      -1.5832830000    -2.8786780000    -2.7427690000
    9      H      -0.6221800000    -1.3760150000    -2.8633470000
   10      H      -2.1680110000    -1.3757280000    -1.9710940000
   11      C       0.0000000000     0.0000000000     0.0000000000
   12      C       0.7479160000     0.4317720000     1.0994460000
   13      C       1.9464250000     1.1237090000     0.7767210000
   14      H       0.4285230000     0.2473780000     2.1360880000
   15      C       2.1375310000     1.2340180000    -0.6125460000
   16      S       0.8161540000     0.4711790000    -1.4868090000
   17      C       2.8884550000     1.6675640000     1.8146090000
   18      H       2.5198420000     1.4547460000     2.8366760000
   19      H       3.0088960000     2.7675430000     1.7262390000
   20      H       3.9012710000     1.2218500000     1.7262280000
   21      H       2.9595870000     1.7086090000    -1.1615750000
   22      H       1.3362540000    -4.3927130000     0.5210980000
   23      H      -0.2183740000    -4.3923470000     1.4185090000
   24      H       0.9353650000    -1.4409370000    -0.5399000000
 ----------------------------------------------------------------

   11   -1180.6793379256      5.00e-07  Convergence criterion met
 Total energy in the final basis set =    -1180.6793379256
        RIMP2         total energy =     -1182.7036508748 a.u.

                    Orbital Energies (a.u.)
 --------------------------------------------------------------

 Alpha MOs
 -- Occupied --
-91.9733 -91.9397 -11.2829 -11.2634 -11.2558 -11.2551 -11.2537 -11.2515
-11.2375 -11.2302 -11.2300 -11.2168  -8.9756  -8.9443  -6.6563  -6.6555
 -6.6551  -6.6257  -6.6246  -6.6233  -1.2125  -1.1534  -1.0623  -1.0268
 -1.0067  -0.9577  -0.9148  -0.9022  -0.8075  -0.7750  -0.7285  -0.7037
 -0.6542  -0.6434  -0.6148  -0.5900  -0.5832  -0.5750  -0.5696  -0.5510
 -0.5424  -0.5371  -0.5176  -0.5088  -0.4879  -0.4612  -0.4599  -0.4340
 -0.3593  -0.3410  -0.3291  -0.2566

          Ground-State Mulliken Net Atomic Charges

     Atom                 Charge (a.u.)
  ----------------------------------------
      1 C                    -0.088932
      2 C                    -0.313926
      3 C                    -0.081511
      4 H                     0.174201
      5 C                     0.119151
      6 S                    -0.196207
      7 C                    -0.286629
      8 H                     0.114552
      9 H                     0.107029
     10 H                     0.111563
     11 C                    -0.106362
     12 C                    -0.179386
     13 C                     0.005319
     14 H                     0.192709
     15 C                    -0.196057
     16 S                    -0.011006
     17 C                    -0.268543
     18 H                     0.104439
     19 H                     0.110388
     20 H                     0.108133
     21 H                     0.201269
     22 H                     0.108010
     23 H                     0.109467
     24 H                     0.162327
  ----------------------------------------
  Sum of atomic charges =     0.000000

                    Cartesian Multipole Moments
 -----------------------------------------------------------------
    Charge (ESU x 10^10)
                -0.0000
    Dipole Moment (Debye)
         X       1.8685      Y       0.1979      Z      -0.5807
       Tot       1.9667
    Quadrupole Moments (Debye-Ang)
        XX     -82.1460     XY       6.0438     YY     -82.5530
        XZ       1.0565     YZ       4.6787     ZZ     -85.7918

 Total job time:  743.65s(wall), 740.43s(cpu)
        *  Thank you very much for using Q-Chem.  Have a nice day.  *
