 Q-Chem 5.4, Q-Chem, Inc., Pleasanton, CA (2021)
 Q-Chem 5.4.0 for Intel X86 EM64T Linux

User input:
--------------------------------------------------------------
$molecule
0 1
C	-0.133897	-3.866725	-0.763475
C	0.106669	-3.703963	0.603206
C	0.185154	-2.357056	1.050446
H	0.226709	-4.561092	1.283024
C	-0.000000	-1.440664	-0.000000
S	-0.268206	-2.286957	-1.521018
C	0.437628	-1.978743	2.483610
H	0.549717	-2.878678	3.118875
H	-0.394664	-1.376015	2.903464
H	1.363110	-1.375728	2.593726
C	0.000000	0.000000	0.000000
C	0.555137	0.661535	1.099446
C	1.444710	1.721658	0.776721
H	0.318072	0.379023	2.136088
C	1.586563	1.890676	-0.612546
S	0.605781	0.721904	-1.486809
C	2.143920	2.554907	1.814609
H	1.870325	2.228851	2.836676
H	1.880882	3.629742	1.726239
H	3.248098	2.482476	1.726228
H	2.196723	2.617806	-1.161575
H	-1.077442	-4.392713	-0.946698
H	0.690363	-4.392347	-1.258274
H	-1.063612	-1.440937	0.187427
$end

$rem
JOBTYPE		SP
EXCHANGE	HF
CORRELATION	pRIMP2
BASIS		cc-pvtz
METHOD		rimp2
AUX_BASIS	rimp2-cc-pvtz
SOLVENT_METHOD	PCM
PURECART	11111
SYMMETRY	false
MEM_TOTAL	110000
SCF_CONVERGENCE = 6
THRESH=10
$end

$solvent
dielectric 4.90
$end
--------------------------------------------------------------

             Standard Nuclear Orientation (Angstroms)
    I     Atom           X                Y                Z
 ----------------------------------------------------------------
    1      C      -0.1338970000    -3.8667250000    -0.7634750000
    2      C       0.1066690000    -3.7039630000     0.6032060000
    3      C       0.1851540000    -2.3570560000     1.0504460000
    4      H       0.2267090000    -4.5610920000     1.2830240000
    5      C       0.0000000000    -1.4406640000     0.0000000000
    6      S      -0.2682060000    -2.2869570000    -1.5210180000
    7      C       0.4376280000    -1.9787430000     2.4836100000
    8      H       0.5497170000    -2.8786780000     3.1188750000
    9      H      -0.3946640000    -1.3760150000     2.9034640000
   10      H       1.3631100000    -1.3757280000     2.5937260000
   11      C       0.0000000000     0.0000000000     0.0000000000
   12      C       0.5551370000     0.6615350000     1.0994460000
   13      C       1.4447100000     1.7216580000     0.7767210000
   14      H       0.3180720000     0.3790230000     2.1360880000
   15      C       1.5865630000     1.8906760000    -0.6125460000
   16      S       0.6057810000     0.7219040000    -1.4868090000
   17      C       2.1439200000     2.5549070000     1.8146090000
   18      H       1.8703250000     2.2288510000     2.8366760000
   19      H       1.8808820000     3.6297420000     1.7262390000
   20      H       3.2480980000     2.4824760000     1.7262280000
   21      H       2.1967230000     2.6178060000    -1.1615750000
   22      H      -1.0774420000    -4.3927130000    -0.9466980000
   23      H       0.6903630000    -4.3923470000    -1.2582740000
   24      H      -1.0636120000    -1.4409370000     0.1874270000
 ----------------------------------------------------------------

   10   -1180.7129565302      8.14e-07  Convergence criterion met
 Total energy in the final basis set =    -1180.7129565302
        RIMP2         total energy =     -1182.7315627418 a.u.

                    Orbital Energies (a.u.)
 --------------------------------------------------------------

 Alpha MOs
 -- Occupied --
-91.9796 -91.9425 -11.2734 -11.2658 -11.2643 -11.2536 -11.2503 -11.2415
-11.2395 -11.2332 -11.2290 -11.2180  -8.9799  -8.9472  -6.6608  -6.6601
 -6.6596  -6.6286  -6.6276  -6.6263  -1.2016  -1.1526  -1.0586  -1.0319
 -0.9992  -0.9634  -0.9147  -0.9001  -0.8149  -0.7610  -0.7291  -0.7101
 -0.6522  -0.6456  -0.6099  -0.5943  -0.5890  -0.5692  -0.5607  -0.5492
 -0.5443  -0.5355  -0.5243  -0.5046  -0.4802  -0.4726  -0.4618  -0.4398
 -0.3604  -0.3410  -0.3223  -0.2582

          Ground-State Mulliken Net Atomic Charges

     Atom                 Charge (a.u.)
  ----------------------------------------
      1 C                    -0.075994
      2 C                    -0.330090
      3 C                    -0.043502
      4 H                     0.177515
      5 C                     0.099756
      6 S                    -0.186018
      7 C                    -0.298267
      8 H                     0.121100
      9 H                     0.101804
     10 H                     0.111927
     11 C                    -0.060325
     12 C                    -0.277878
     13 C                     0.043813
     14 H                     0.196703
     15 C                    -0.248689
     16 S                     0.020570
     17 C                    -0.271199
     18 H                     0.100795
     19 H                     0.109562
     20 H                     0.107237
     21 H                     0.196942
     22 H                     0.110739
     23 H                     0.112267
     24 H                     0.181232
  ----------------------------------------
  Sum of atomic charges =     0.000000

                    Cartesian Multipole Moments
 -----------------------------------------------------------------
    Charge (ESU x 10^10)
                -0.0000
    Dipole Moment (Debye)
         X       0.8950      Y       0.0954      Z       4.0258
       Tot       4.1252
    Quadrupole Moments (Debye-Ang)
        XX     -87.1968     XY       6.0027     YY     -78.3751
        XZ       0.9206     YZ      -2.7975     ZZ     -85.5955

 Total job time:  687.00s(wall), 682.88s(cpu)
        *  Thank you very much for using Q-Chem.  Have a nice day.  *
