 Q-Chem 5.4, Q-Chem, Inc., Pleasanton, CA (2021)
 Q-Chem 5.4.0 for Intel X86 EM64T Linux

User input:
--------------------------------------------------------------
$molecule
0 1
C	-0.264439	-3.866725	-0.728625
C	0.209794	-3.703963	0.575519
C	0.364749	-2.357056	1.002336
H	0.446060	-4.561092	1.224165
C	0.000000	-1.440664	0.000000
S	-0.528253	-2.286957	-1.451336
C	0.862253	-1.978743	2.369885
H	1.082953	-2.878678	2.976034
H	0.115513	-1.376015	2.927887
H	1.792797	-1.375728	2.317620
C	0.000000	0.000000	0.000000
C	0.431829	0.747884	1.099446
C	1.123799	1.946373	0.776721
H	0.247423	0.428497	2.136088
C	1.234147	2.137457	-0.612546
S	0.471221	0.816130	-1.486809
C	1.667694	2.888380	1.814609
H	1.454874	2.519768	2.836676
H	1.222009	3.901210	1.726239
H	2.767675	3.008788	1.726228
H	1.708773	2.959493	-1.161575
H	-1.225465	-4.392713	-0.745219
H	0.461378	-4.392347	-1.359038
H	-1.014907	-1.440937	0.369273
$end

$rem
JOBTYPE		SP
EXCHANGE	HF
CORRELATION	pRIMP2
BASIS		cc-pvtz
METHOD		rimp2
AUX_BASIS	rimp2-cc-pvtz
SOLVENT_METHOD	PCM
PURECART	11111
SYMMETRY	false
MEM_TOTAL	110000
SCF_CONVERGENCE = 6
THRESH=10
$end

$solvent
dielectric 4.90
$end
--------------------------------------------------------------

             Standard Nuclear Orientation (Angstroms)
    I     Atom           X                Y                Z
 ----------------------------------------------------------------
    1      C      -0.2644390000    -3.8667250000    -0.7286250000
    2      C       0.2097940000    -3.7039630000     0.5755190000
    3      C       0.3647490000    -2.3570560000     1.0023360000
    4      H       0.4460600000    -4.5610920000     1.2241650000
    5      C       0.0000000000    -1.4406640000     0.0000000000
    6      S      -0.5282530000    -2.2869570000    -1.4513360000
    7      C       0.8622530000    -1.9787430000     2.3698850000
    8      H       1.0829530000    -2.8786780000     2.9760340000
    9      H       0.1155130000    -1.3760150000     2.9278870000
   10      H       1.7927970000    -1.3757280000     2.3176200000
   11      C       0.0000000000     0.0000000000     0.0000000000
   12      C       0.4318290000     0.7478840000     1.0994460000
   13      C       1.1237990000     1.9463730000     0.7767210000
   14      H       0.2474230000     0.4284970000     2.1360880000
   15      C       1.2341470000     2.1374570000    -0.6125460000
   16      S       0.4712210000     0.8161300000    -1.4868090000
   17      C       1.6676940000     2.8883800000     1.8146090000
   18      H       1.4548740000     2.5197680000     2.8366760000
   19      H       1.2220090000     3.9012100000     1.7262390000
   20      H       2.7676750000     3.0087880000     1.7262280000
   21      H       1.7087730000     2.9594930000    -1.1615750000
   22      H      -1.2254650000    -4.3927130000    -0.7452190000
   23      H       0.4613780000    -4.3923470000    -1.3590380000
   24      H      -1.0149070000    -1.4409370000     0.3692730000
 ----------------------------------------------------------------

   10   -1180.7334546134      6.04e-07  Convergence criterion met
 Total energy in the final basis set =    -1180.7334546134
        RIMP2         total energy =     -1182.7468859605 a.u.

                    Orbital Energies (a.u.)
 --------------------------------------------------------------

 Alpha MOs
 -- Occupied --
-91.9806 -91.9437 -11.2799 -11.2652 -11.2613 -11.2565 -11.2504 -11.2427
-11.2366 -11.2332 -11.2288 -11.2202  -8.9807  -8.9483  -6.6616  -6.6609
 -6.6604  -6.6297  -6.6287  -6.6275  -1.2012  -1.1526  -1.0591  -1.0310
 -1.0007  -0.9625  -0.9148  -0.9000  -0.8160  -0.7618  -0.7279  -0.7094
 -0.6546  -0.6465  -0.6103  -0.5934  -0.5887  -0.5697  -0.5594  -0.5518
 -0.5426  -0.5351  -0.5235  -0.5050  -0.4814  -0.4737  -0.4660  -0.4428
 -0.3590  -0.3420  -0.3228  -0.2626

          Ground-State Mulliken Net Atomic Charges

     Atom                 Charge (a.u.)
  ----------------------------------------
      1 C                    -0.075014
      2 C                    -0.324159
      3 C                    -0.060045
      4 H                     0.178552
      5 C                     0.117051
      6 S                    -0.182586
      7 C                    -0.298960
      8 H                     0.121396
      9 H                     0.099330
     10 H                     0.117027
     11 C                    -0.037143
     12 C                    -0.312204
     13 C                     0.057621
     14 H                     0.193643
     15 C                    -0.264001
     16 S                     0.018957
     17 C                    -0.271393
     18 H                     0.101037
     19 H                     0.109048
     20 H                     0.107910
     21 H                     0.195597
     22 H                     0.111318
     23 H                     0.112517
     24 H                     0.184500
  ----------------------------------------
  Sum of atomic charges =     0.000000

                    Cartesian Multipole Moments
 -----------------------------------------------------------------
    Charge (ESU x 10^10)
                -0.0000
    Dipole Moment (Debye)
         X       0.9167      Y      -0.0407      Z       4.0556
       Tot       4.1581
    Quadrupole Moments (Debye-Ang)
        XX     -88.9121     XY       4.6779     YY     -76.1522
        XZ       0.8940     YZ      -2.7604     ZZ     -85.9180

 Total job time:  673.33s(wall), 667.82s(cpu)
        *  Thank you very much for using Q-Chem.  Have a nice day.  *
