 Q-Chem 5.4, Q-Chem, Inc., Pleasanton, CA (2021)
 Q-Chem 5.4.0 for Intel X86 EM64T Linux

User input:
--------------------------------------------------------------
$molecule
0 1
C	0.763228	-3.866725	0.135301
C	-0.603311	-3.703963	-0.106073
C	-1.050423	-2.357056	-0.185286
H	-1.283188	-4.561092	-0.225783
C	-0.000000	-1.440664	-0.000000
S	1.521021	-2.286957	0.268187
C	-2.483507	-1.978743	-0.438209
H	-3.118798	-2.878678	-0.550153
H	-2.593381	-1.376015	-1.363906
H	-2.903516	-1.375728	0.393798
C	0.000000	0.000000	0.000000
C	0.555137	0.661535	1.099446
C	1.444710	1.721658	0.776721
H	0.318072	0.379023	2.136088
C	1.586563	1.890676	-0.612546
S	0.605781	0.721904	-1.486809
C	2.143920	2.554907	1.814609
H	1.870325	2.228851	2.836676
H	1.880882	3.629742	1.726239
H	3.248098	2.482476	1.726228
H	2.196723	2.617806	-1.161575
H	1.258111	-4.392713	-0.688674
H	0.946272	-4.392347	1.079084
H	0.187654	-1.440937	-1.063572
$end

$rem
JOBTYPE		SP
EXCHANGE	HF
CORRELATION	pRIMP2
BASIS		cc-pvtz
METHOD		rimp2
AUX_BASIS	rimp2-cc-pvtz
SOLVENT_METHOD	PCM
PURECART	11111
SYMMETRY	false
MEM_TOTAL	110000
SCF_CONVERGENCE = 6
THRESH=10
$end

$solvent
dielectric 4.90
$end
--------------------------------------------------------------

             Standard Nuclear Orientation (Angstroms)
    I     Atom           X                Y                Z
 ----------------------------------------------------------------
    1      C       0.7632280000    -3.8667250000     0.1353010000
    2      C      -0.6033110000    -3.7039630000    -0.1060730000
    3      C      -1.0504230000    -2.3570560000    -0.1852860000
    4      H      -1.2831880000    -4.5610920000    -0.2257830000
    5      C       0.0000000000    -1.4406640000     0.0000000000
    6      S       1.5210210000    -2.2869570000     0.2681870000
    7      C      -2.4835070000    -1.9787430000    -0.4382090000
    8      H      -3.1187980000    -2.8786780000    -0.5501530000
    9      H      -2.5933810000    -1.3760150000    -1.3639060000
   10      H      -2.9035160000    -1.3757280000     0.3937980000
   11      C       0.0000000000     0.0000000000     0.0000000000
   12      C       0.5551370000     0.6615350000     1.0994460000
   13      C       1.4447100000     1.7216580000     0.7767210000
   14      H       0.3180720000     0.3790230000     2.1360880000
   15      C       1.5865630000     1.8906760000    -0.6125460000
   16      S       0.6057810000     0.7219040000    -1.4868090000
   17      C       2.1439200000     2.5549070000     1.8146090000
   18      H       1.8703250000     2.2288510000     2.8366760000
   19      H       1.8808820000     3.6297420000     1.7262390000
   20      H       3.2480980000     2.4824760000     1.7262280000
   21      H       2.1967230000     2.6178060000    -1.1615750000
   22      H       1.2581110000    -4.3927130000    -0.6886740000
   23      H       0.9462720000    -4.3923470000     1.0790840000
   24      H       0.1876540000    -1.4409370000    -1.0635720000
 ----------------------------------------------------------------

   10   -1180.7277120218      6.11e-07  Convergence criterion met
 Total energy in the final basis set =    -1180.7277120218
        RIMP2         total energy =     -1182.7394279955 a.u.

                    Orbital Energies (a.u.)
 --------------------------------------------------------------

 Alpha MOs
 -- Occupied --
-91.9828 -91.9385 -11.2751 -11.2663 -11.2578 -11.2514 -11.2505 -11.2477
-11.2383 -11.2301 -11.2291 -11.2138  -8.9832  -8.9432  -6.6641  -6.6634
 -6.6628  -6.6246  -6.6235  -6.6223  -1.2001  -1.1536  -1.0584  -1.0251
 -1.0018  -0.9624  -0.9118  -0.9002  -0.8095  -0.7640  -0.7406  -0.7029
 -0.6514  -0.6309  -0.6125  -0.5868  -0.5774  -0.5752  -0.5668  -0.5521
 -0.5416  -0.5317  -0.5093  -0.5068  -0.4871  -0.4722  -0.4643  -0.4457
 -0.3575  -0.3371  -0.3141  -0.2767

          Ground-State Mulliken Net Atomic Charges

     Atom                 Charge (a.u.)
  ----------------------------------------
      1 C                    -0.075039
      2 C                    -0.331802
      3 C                    -0.043560
      4 H                     0.173515
      5 C                     0.067589
      6 S                    -0.181206
      7 C                    -0.272166
      8 H                     0.112951
      9 H                     0.101095
     10 H                     0.106400
     11 C                    -0.083438
     12 C                    -0.232681
     13 C                     0.042770
     14 H                     0.183746
     15 C                    -0.218751
     16 S                     0.013005
     17 C                    -0.268324
     18 H                     0.102986
     19 H                     0.107667
     20 H                     0.107483
     21 H                     0.200161
     22 H                     0.108485
     23 H                     0.109306
     24 H                     0.169808
  ----------------------------------------
  Sum of atomic charges =     0.000000

                    Cartesian Multipole Moments
 -----------------------------------------------------------------
    Charge (ESU x 10^10)
                -0.0000
    Dipole Moment (Debye)
         X      -0.6384      Y       0.9672      Z       0.4739
       Tot       1.2520
    Quadrupole Moments (Debye-Ang)
        XX     -86.9373     XY       8.9588     YY     -79.2165
        XZ       0.2700     YZ       2.6203     ZZ     -85.6182

 Total job time:  655.83s(wall), 652.08s(cpu)
        *  Thank you very much for using Q-Chem.  Have a nice day.  *
