 Q-Chem 5.4, Q-Chem, Inc., Pleasanton, CA (2021)
 Q-Chem 5.4.0 for Intel X86 EM64T Linux

User input:
--------------------------------------------------------------
$molecule
0 1
C	0.386946	-3.866725	0.671636
C	-0.306544	-3.703963	-0.530345
C	-0.533261	-2.357056	-0.923770
H	-0.651857	-4.561092	-1.128109
C	-0.000000	-1.440664	-0.000000
S	0.772250	-2.286957	1.337557
C	-1.260680	-1.978743	-2.184153
H	-1.583283	-2.878678	-2.742769
H	-0.622180	-1.376015	-2.863347
H	-2.168011	-1.375728	-1.971094
C	0.000000	0.000000	0.000000
C	0.075300	0.860311	1.099446
C	0.195935	2.238951	0.776721
H	0.043151	0.492916	2.136088
C	0.215188	2.458766	-0.612546
S	0.082160	0.938811	-1.486809
C	0.290762	3.322559	1.814609
H	0.253664	2.898542	2.836676
H	-0.541206	4.052140	1.726239
H	1.236797	3.896558	1.726228
H	0.297938	3.404370	-1.161575
H	1.336254	-4.392713	0.521098
H	-0.218374	-4.392347	1.418509
H	-0.935365	-1.440391	0.539900
$end

$rem
JOBTYPE		SP
EXCHANGE	HF
CORRELATION	pRIMP2
BASIS		cc-pvtz
METHOD		rimp2
AUX_BASIS	rimp2-cc-pvtz
SOLVENT_METHOD	PCM
PURECART	11111
SYMMETRY	false
MEM_TOTAL	110000
SCF_CONVERGENCE = 6
THRESH=10
$end

$solvent
dielectric 4.90
$end
--------------------------------------------------------------

             Standard Nuclear Orientation (Angstroms)
    I     Atom           X                Y                Z
 ----------------------------------------------------------------
    1      C       0.3869460000    -3.8667250000     0.6716360000
    2      C      -0.3065440000    -3.7039630000    -0.5303450000
    3      C      -0.5332610000    -2.3570560000    -0.9237700000
    4      H      -0.6518570000    -4.5610920000    -1.1281090000
    5      C       0.0000000000    -1.4406640000     0.0000000000
    6      S       0.7722500000    -2.2869570000     1.3375570000
    7      C      -1.2606800000    -1.9787430000    -2.1841530000
    8      H      -1.5832830000    -2.8786780000    -2.7427690000
    9      H      -0.6221800000    -1.3760150000    -2.8633470000
   10      H      -2.1680110000    -1.3757280000    -1.9710940000
   11      C       0.0000000000     0.0000000000     0.0000000000
   12      C       0.0753000000     0.8603110000     1.0994460000
   13      C       0.1959350000     2.2389510000     0.7767210000
   14      H       0.0431510000     0.4929160000     2.1360880000
   15      C       0.2151880000     2.4587660000    -0.6125460000
   16      S       0.0821600000     0.9388110000    -1.4868090000
   17      C       0.2907620000     3.3225590000     1.8146090000
   18      H       0.2536640000     2.8985420000     2.8366760000
   19      H      -0.5412060000     4.0521400000     1.7262390000
   20      H       1.2367970000     3.8965580000     1.7262280000
   21      H       0.2979380000     3.4043700000    -1.1615750000
   22      H       1.3362540000    -4.3927130000     0.5210980000
   23      H      -0.2183740000    -4.3923470000     1.4185090000
   24      H      -0.9353650000    -1.4403910000     0.5399000000
 ----------------------------------------------------------------

   10   -1180.7591924169      5.01e-07  Convergence criterion met
 Total energy in the final basis set =    -1180.7591924169
        RIMP2         total energy =     -1182.7650149729 a.u.

                    Orbital Energies (a.u.)
 --------------------------------------------------------------

 Alpha MOs
 -- Occupied --
-91.9819 -91.9454 -11.2889 -11.2654 -11.2597 -11.2551 -11.2505 -11.2434
-11.2332 -11.2329 -11.2279 -11.2224  -8.9818  -8.9500  -6.6627  -6.6621
 -6.6615  -6.6314  -6.6303  -6.6290  -1.2014  -1.1525  -1.0602  -1.0278
 -1.0073  -0.9566  -0.9154  -0.9013  -0.8155  -0.7705  -0.7218  -0.7015
 -0.6623  -0.6459  -0.6109  -0.5884  -0.5819  -0.5736  -0.5679  -0.5539
 -0.5422  -0.5339  -0.5149  -0.5082  -0.4891  -0.4841  -0.4581  -0.4483
 -0.3578  -0.3427  -0.3234  -0.2666

          Ground-State Mulliken Net Atomic Charges

     Atom                 Charge (a.u.)
  ----------------------------------------
      1 C                    -0.076371
      2 C                    -0.322418
      3 C                    -0.038611
      4 H                     0.178445
      5 C                     0.124494
      6 S                    -0.177318
      7 C                    -0.294628
      8 H                     0.117555
      9 H                     0.110647
     10 H                     0.112952
     11 C                    -0.034958
     12 C                    -0.309796
     13 C                     0.040593
     14 H                     0.180567
     15 C                    -0.269536
     16 S                     0.008982
     17 C                    -0.273332
     18 H                     0.102666
     19 H                     0.107845
     20 H                     0.108874
     21 H                     0.195038
     22 H                     0.114213
     23 H                     0.110809
     24 H                     0.183287
  ----------------------------------------
  Sum of atomic charges =     0.000000

                    Cartesian Multipole Moments
 -----------------------------------------------------------------
    Charge (ESU x 10^10)
                -0.0000
    Dipole Moment (Debye)
         X      -1.8622      Y      -0.2621      Z      -0.2489
       Tot       1.8970
    Quadrupole Moments (Debye-Ang)
        XX     -91.8504     XY       3.9255     YY     -73.3551
        XZ       0.1668     YZ       3.5284     ZZ     -85.4987

 Total job time:  651.29s(wall), 646.89s(cpu)
        *  Thank you very much for using Q-Chem.  Have a nice day.  *
