 Q-Chem 5.4, Q-Chem, Inc., Pleasanton, CA (2021)
 Q-Chem 5.4.0 for Intel X86 EM64T Linux

User input:
--------------------------------------------------------------
$molecule
0 1
C	-0.670924	-3.866725	-0.388181
C	0.530648	-3.703963	0.306020
C	0.923703	-2.357056	0.533378
H	1.128579	-4.561092	0.651043
C	-0.000000	-1.440664	-0.000000
S	-1.337567	-2.286957	-0.772234
C	2.183857	-1.978743	1.261192
H	2.742548	-2.878678	1.583666
H	1.970497	-1.376015	2.168641
H	2.863099	-1.375728	0.623012
C	0.000000	0.000000	0.000000
C	0.365003	0.782674	1.099446
C	0.949885	2.036912	0.776721
H	0.209135	0.448431	2.136088
C	1.043159	2.236886	-0.612546
S	0.398297	0.854094	-1.486809
C	1.409609	3.022738	1.814609
H	1.229726	2.636980	2.836676
H	0.877346	3.992870	1.726239
H	2.494910	3.238558	1.726228
H	1.444334	3.097160	-1.161575
H	-1.417779	-4.392713	0.216843
H	-0.520136	-4.392347	-1.337652
H	0.540100	-1.440391	-0.935250
$end

$rem
JOBTYPE		SP
EXCHANGE	HF
CORRELATION	pRIMP2
BASIS		cc-pvtz
METHOD		rimp2
AUX_BASIS	rimp2-cc-pvtz
SOLVENT_METHOD	PCM
PURECART	11111
SYMMETRY	false
MEM_TOTAL	110000
SCF_CONVERGENCE = 6
THRESH=10
$end

$solvent
dielectric 4.90
$end
--------------------------------------------------------------

             Standard Nuclear Orientation (Angstroms)
    I     Atom           X                Y                Z
 ----------------------------------------------------------------
    1      C      -0.6709240000    -3.8667250000    -0.3881810000
    2      C       0.5306480000    -3.7039630000     0.3060200000
    3      C       0.9237030000    -2.3570560000     0.5333780000
    4      H       1.1285790000    -4.5610920000     0.6510430000
    5      C       0.0000000000    -1.4406640000     0.0000000000
    6      S      -1.3375670000    -2.2869570000    -0.7722340000
    7      C       2.1838570000    -1.9787430000     1.2611920000
    8      H       2.7425480000    -2.8786780000     1.5836660000
    9      H       1.9704970000    -1.3760150000     2.1686410000
   10      H       2.8630990000    -1.3757280000     0.6230120000
   11      C       0.0000000000     0.0000000000     0.0000000000
   12      C       0.3650030000     0.7826740000     1.0994460000
   13      C       0.9498850000     2.0369120000     0.7767210000
   14      H       0.2091350000     0.4484310000     2.1360880000
   15      C       1.0431590000     2.2368860000    -0.6125460000
   16      S       0.3982970000     0.8540940000    -1.4868090000
   17      C       1.4096090000     3.0227380000     1.8146090000
   18      H       1.2297260000     2.6369800000     2.8366760000
   19      H       0.8773460000     3.9928700000     1.7262390000
   20      H       2.4949100000     3.2385580000     1.7262280000
   21      H       1.4443340000     3.0971600000    -1.1615750000
   22      H      -1.4177790000    -4.3927130000     0.2168430000
   23      H      -0.5201360000    -4.3923470000    -1.3376520000
   24      H       0.5401000000    -1.4403910000    -0.9352500000
 ----------------------------------------------------------------

   10   -1180.7466517651      5.22e-07  Convergence criterion met
 Total energy in the final basis set =    -1180.7466517651
        RIMP2         total energy =     -1182.7544419055 a.u.

                    Orbital Energies (a.u.)
 --------------------------------------------------------------

 Alpha MOs
 -- Occupied --
-91.9828 -91.9389 -11.2773 -11.2673 -11.2629 -11.2544 -11.2511 -11.2415
-11.2402 -11.2312 -11.2294 -11.2193  -8.9830  -8.9438  -6.6639  -6.6633
 -6.6627  -6.6252  -6.6242  -6.6229  -1.1999  -1.1537  -1.0592  -1.0270
 -1.0011  -0.9644  -0.9125  -0.9005  -0.8115  -0.7604  -0.7448  -0.7042
 -0.6525  -0.6357  -0.6114  -0.5887  -0.5776  -0.5720  -0.5679  -0.5545
 -0.5443  -0.5306  -0.5182  -0.5066  -0.4882  -0.4747  -0.4632  -0.4472
 -0.3547  -0.3436  -0.3188  -0.2729

          Ground-State Mulliken Net Atomic Charges

     Atom                 Charge (a.u.)
  ----------------------------------------
      1 C                    -0.075114
      2 C                    -0.323095
      3 C                    -0.038167
      4 H                     0.176996
      5 C                     0.091835
      6 S                    -0.183826
      7 C                    -0.273788
      8 H                     0.116454
      9 H                     0.103220
     10 H                     0.108861
     11 C                    -0.060279
     12 C                    -0.282561
     13 C                     0.044048
     14 H                     0.192148
     15 C                    -0.241635
     16 S                     0.008027
     17 C                    -0.271308
     18 H                     0.102341
     19 H                     0.109361
     20 H                     0.107511
     21 H                     0.199131
     22 H                     0.111531
     23 H                     0.108780
     24 H                     0.169529
  ----------------------------------------
  Sum of atomic charges =     0.000000

                    Cartesian Multipole Moments
 -----------------------------------------------------------------
    Charge (ESU x 10^10)
                -0.0000
    Dipole Moment (Debye)
         X       3.3891      Y       0.5966      Z       2.1260
       Tot       4.0450
    Quadrupole Moments (Debye-Ang)
        XX     -90.1808     XY       0.2935     YY     -75.7136
        XZ       0.5120     YZ       0.2438     ZZ     -85.6410

 Total job time:  661.76s(wall), 658.43s(cpu)
        *  Thank you very much for using Q-Chem.  Have a nice day.  *
