 Q-Chem 5.4, Q-Chem, Inc., Pleasanton, CA (2021)
 Q-Chem 5.4.0 for Intel X86 EM64T Linux

User input:
--------------------------------------------------------------
$molecule
0 1
C	-0.498788	-3.866725	0.593324
C	0.393517	-3.703963	-0.469446
C	0.685674	-2.357056	-0.817050
H	0.837128	-4.561092	-0.998381
C	-0.000000	-1.440664	-0.000000
S	-0.992768	-2.286957	1.183149
C	1.621254	-1.978743	-1.931676
H	2.035845	-2.878678	-2.425882
H	2.477868	-1.376015	-1.563980
H	1.110719	-1.375728	-2.711417
C	0.000000	0.000000	0.000000
C	0.555137	0.661535	1.099446
C	1.444710	1.721658	0.776721
H	0.318072	0.379023	2.136088
C	1.586563	1.890676	-0.612546
S	0.605781	0.721904	-1.486809
C	2.143920	2.554907	1.814609
H	1.870325	2.228851	2.836676
H	1.880882	3.629742	1.726239
H	3.248098	2.482476	1.726228
H	2.196723	2.617806	-1.161575
H	-0.032646	-4.392713	1.433894
H	-1.407651	-4.392347	0.279954
H	0.827254	-1.440937	0.694299
$end

$rem
JOBTYPE		SP
EXCHANGE	HF
CORRELATION	pRIMP2
BASIS		cc-pvtz
METHOD		rimp2
AUX_BASIS	rimp2-cc-pvtz
SOLVENT_METHOD	PCM
PURECART	11111
SYMMETRY	false
MEM_TOTAL	110000
SCF_CONVERGENCE = 6
THRESH=10
$end

$solvent
dielectric 4.90
$end
--------------------------------------------------------------

             Standard Nuclear Orientation (Angstroms)
    I     Atom           X                Y                Z
 ----------------------------------------------------------------
    1      C      -0.4987880000    -3.8667250000     0.5933240000
    2      C       0.3935170000    -3.7039630000    -0.4694460000
    3      C       0.6856740000    -2.3570560000    -0.8170500000
    4      H       0.8371280000    -4.5610920000    -0.9983810000
    5      C       0.0000000000    -1.4406640000     0.0000000000
    6      S      -0.9927680000    -2.2869570000     1.1831490000
    7      C       1.6212540000    -1.9787430000    -1.9316760000
    8      H       2.0358450000    -2.8786780000    -2.4258820000
    9      H       2.4778680000    -1.3760150000    -1.5639800000
   10      H       1.1107190000    -1.3757280000    -2.7114170000
   11      C       0.0000000000     0.0000000000     0.0000000000
   12      C       0.5551370000     0.6615350000     1.0994460000
   13      C       1.4447100000     1.7216580000     0.7767210000
   14      H       0.3180720000     0.3790230000     2.1360880000
   15      C       1.5865630000     1.8906760000    -0.6125460000
   16      S       0.6057810000     0.7219040000    -1.4868090000
   17      C       2.1439200000     2.5549070000     1.8146090000
   18      H       1.8703250000     2.2288510000     2.8366760000
   19      H       1.8808820000     3.6297420000     1.7262390000
   20      H       3.2480980000     2.4824760000     1.7262280000
   21      H       2.1967230000     2.6178060000    -1.1615750000
   22      H      -0.0326460000    -4.3927130000     1.4338940000
   23      H      -1.4076510000    -4.3923470000     0.2799540000
   24      H       0.8272540000    -1.4409370000     0.6942990000
 ----------------------------------------------------------------

   10   -1180.7122492543      8.28e-07  Convergence criterion met
 Total energy in the final basis set =    -1180.7122492543
        RIMP2         total energy =     -1182.7316651795 a.u.

                    Orbital Energies (a.u.)
 --------------------------------------------------------------

 Alpha MOs
 -- Occupied --
-91.9815 -91.9387 -11.2762 -11.2663 -11.2629 -11.2538 -11.2513 -11.2400
-11.2393 -11.2291 -11.2279 -11.2173  -8.9820  -8.9436  -6.6627  -6.6621
 -6.6617  -6.6251  -6.6240  -6.6228  -1.2033  -1.1525  -1.0595  -1.0252
 -1.0080  -0.9561  -0.9111  -0.9035  -0.8081  -0.7692  -0.7286  -0.6997
 -0.6626  -0.6414  -0.6102  -0.5834  -0.5832  -0.5752  -0.5682  -0.5542
 -0.5426  -0.5299  -0.5168  -0.5123  -0.4922  -0.4652  -0.4533  -0.4439
 -0.3536  -0.3416  -0.3205  -0.2620

          Ground-State Mulliken Net Atomic Charges

     Atom                 Charge (a.u.)
  ----------------------------------------
      1 C                    -0.070365
      2 C                    -0.330120
      3 C                    -0.040925
      4 H                     0.177416
      5 C                     0.062803
      6 S                    -0.196688
      7 C                    -0.279003
      8 H                     0.110556
      9 H                     0.110782
     10 H                     0.110503
     11 C                    -0.059249
     12 C                    -0.232878
     13 C                     0.015413
     14 H                     0.186007
     15 C                    -0.243400
     16 S                     0.023141
     17 C                    -0.268718
     18 H                     0.102901
     19 H                     0.107951
     20 H                     0.105713
     21 H                     0.197854
     22 H                     0.108642
     23 H                     0.111019
     24 H                     0.190641
  ----------------------------------------
  Sum of atomic charges =     0.000000

                    Cartesian Multipole Moments
 -----------------------------------------------------------------
    Charge (ESU x 10^10)
                -0.0000
    Dipole Moment (Debye)
         X       3.5847      Y       0.2967      Z      -0.1598
       Tot       3.6005
    Quadrupole Moments (Debye-Ang)
        XX     -87.6750     XY       1.9299     YY     -79.5315
        XZ       0.5833     YZ       2.5588     ZZ     -85.0642

 Total job time:  676.61s(wall), 673.43s(cpu)
        *  Thank you very much for using Q-Chem.  Have a nice day.  *
