 Q-Chem 5.4, Q-Chem, Inc., Pleasanton, CA (2021)
 Q-Chem 5.4.0 for Intel X86 EM64T Linux

User input:
--------------------------------------------------------------
$molecule
0 1
C	0.388181	-3.866725	-0.670924
C	-0.306020	-3.703963	0.530648
C	-0.533378	-2.357056	0.923703
H	-0.651043	-4.561092	1.128579
C	-0.000000	-1.440664	-0.000000
S	0.772234	-2.286957	-1.337567
C	-1.261192	-1.978743	2.183857
H	-1.583666	-2.878678	2.742548
H	-2.168641	-1.376015	1.970497
H	-0.623012	-1.375728	2.863099
C	0.000000	0.000000	0.000000
C	0.075300	0.860311	1.099446
C	0.195935	2.238951	0.776721
H	0.043151	0.492916	2.136088
C	0.215188	2.458766	-0.612546
S	0.082160	0.938811	-1.486809
C	0.290762	3.322559	1.814609
H	0.253664	2.898542	2.836676
H	-0.541206	4.052140	1.726239
H	1.236797	3.896558	1.726228
H	0.297938	3.404370	-1.161575
H	-0.216843	-4.392713	-1.417779
H	1.337652	-4.392347	-0.520136
H	0.935250	-1.440391	0.540100
$end

$rem
JOBTYPE		SP
EXCHANGE	HF
CORRELATION	pRIMP2
BASIS		cc-pvtz
METHOD		rimp2
AUX_BASIS	rimp2-cc-pvtz
SOLVENT_METHOD	PCM
PURECART	11111
SYMMETRY	false
MEM_TOTAL	110000
SCF_CONVERGENCE = 6
THRESH=10
$end

$solvent
dielectric 4.90
$end
--------------------------------------------------------------

             Standard Nuclear Orientation (Angstroms)
    I     Atom           X                Y                Z
 ----------------------------------------------------------------
    1      C       0.3881810000    -3.8667250000    -0.6709240000
    2      C      -0.3060200000    -3.7039630000     0.5306480000
    3      C      -0.5333780000    -2.3570560000     0.9237030000
    4      H      -0.6510430000    -4.5610920000     1.1285790000
    5      C       0.0000000000    -1.4406640000     0.0000000000
    6      S       0.7722340000    -2.2869570000    -1.3375670000
    7      C      -1.2611920000    -1.9787430000     2.1838570000
    8      H      -1.5836660000    -2.8786780000     2.7425480000
    9      H      -2.1686410000    -1.3760150000     1.9704970000
   10      H      -0.6230120000    -1.3757280000     2.8630990000
   11      C       0.0000000000     0.0000000000     0.0000000000
   12      C       0.0753000000     0.8603110000     1.0994460000
   13      C       0.1959350000     2.2389510000     0.7767210000
   14      H       0.0431510000     0.4929160000     2.1360880000
   15      C       0.2151880000     2.4587660000    -0.6125460000
   16      S       0.0821600000     0.9388110000    -1.4868090000
   17      C       0.2907620000     3.3225590000     1.8146090000
   18      H       0.2536640000     2.8985420000     2.8366760000
   19      H      -0.5412060000     4.0521400000     1.7262390000
   20      H       1.2367970000     3.8965580000     1.7262280000
   21      H       0.2979380000     3.4043700000    -1.1615750000
   22      H      -0.2168430000    -4.3927130000    -1.4177790000
   23      H       1.3376520000    -4.3923470000    -0.5201360000
   24      H       0.9352500000    -1.4403910000     0.5401000000
 ----------------------------------------------------------------

   10   -1180.7586070454      4.99e-07  Convergence criterion met
 Total energy in the final basis set =    -1180.7586070454
        RIMP2         total energy =     -1182.7642983953 a.u.

                    Orbital Energies (a.u.)
 --------------------------------------------------------------

 Alpha MOs
 -- Occupied --
-91.9840 -91.9455 -11.2894 -11.2657 -11.2603 -11.2546 -11.2505 -11.2436
-11.2337 -11.2313 -11.2284 -11.2228  -8.9835  -8.9501  -6.6644  -6.6639
 -6.6633  -6.6315  -6.6305  -6.6292  -1.2017  -1.1525  -1.0600  -1.0308
 -1.0023  -0.9612  -0.9148  -0.9000  -0.8183  -0.7625  -0.7270  -0.7059
 -0.6608  -0.6473  -0.6108  -0.5923  -0.5856  -0.5695  -0.5600  -0.5540
 -0.5431  -0.5341  -0.5198  -0.5036  -0.4873  -0.4827  -0.4677  -0.4447
 -0.3588  -0.3438  -0.3227  -0.2666

          Ground-State Mulliken Net Atomic Charges

     Atom                 Charge (a.u.)
  ----------------------------------------
      1 C                    -0.075827
      2 C                    -0.316254
      3 C                    -0.058980
      4 H                     0.177912
      5 C                     0.117750
      6 S                    -0.179141
      7 C                    -0.287438
      8 H                     0.118873
      9 H                     0.116323
     10 H                     0.099776
     11 C                    -0.053635
     12 C                    -0.266685
     13 C                     0.028213
     14 H                     0.187239
     15 C                    -0.271997
     16 S                     0.009631
     17 C                    -0.273461
     18 H                     0.100793
     19 H                     0.108424
     20 H                     0.108703
     21 H                     0.195992
     22 H                     0.112027
     23 H                     0.112988
     24 H                     0.188773
  ----------------------------------------
  Sum of atomic charges =     0.000000

                    Cartesian Multipole Moments
 -----------------------------------------------------------------
    Charge (ESU x 10^10)
                -0.0000
    Dipole Moment (Debye)
         X      -0.3409      Y      -0.3134      Z       3.8550
       Tot       3.8828
    Quadrupole Moments (Debye-Ang)
        XX     -91.3377     XY       1.2480     YY     -73.2262
        XZ      -0.1666     YZ      -2.6127     ZZ     -86.0878

 Total job time:  655.32s(wall), 651.88s(cpu)
        *  Thank you very much for using Q-Chem.  Have a nice day.  *
