 Q-Chem 5.4, Q-Chem, Inc., Pleasanton, CA (2021)
 Q-Chem 5.4.0 for Intel X86 EM64T Linux

User input:
--------------------------------------------------------------
$molecule
0 1
C	-0.135301	-3.866725	0.763228
C	0.106073	-3.703963	-0.603311
C	0.185286	-2.357056	-1.050423
H	0.225783	-4.561092	-1.283188
C	-0.000000	-1.440664	-0.000000
S	-0.268187	-2.286957	1.521021
C	0.438209	-1.978743	-2.483507
H	0.550153	-2.878678	-3.118798
H	1.363906	-1.376015	-2.593381
H	-0.393798	-1.375728	-2.903516
C	0.000000	0.000000	0.000000
C	0.747916	0.431772	1.099446
C	1.946425	1.123709	0.776721
H	0.428523	0.247378	2.136088
C	2.137531	1.234018	-0.612546
S	0.816154	0.471179	-1.486809
C	2.888455	1.667564	1.814609
H	2.519842	1.454746	2.836676
H	3.008896	2.767543	1.726239
H	3.901271	1.221850	1.726228
H	2.959587	1.708609	-1.161575
H	0.688674	-4.392713	1.258111
H	-1.079084	-4.392347	0.946272
H	1.063572	-1.440937	0.187654
$end

$rem
JOBTYPE		SP
EXCHANGE	HF
CORRELATION	pRIMP2
BASIS		cc-pvtz
METHOD		rimp2
AUX_BASIS	rimp2-cc-pvtz
SOLVENT_METHOD	PCM
PURECART	11111
SYMMETRY	false
MEM_TOTAL	110000
SCF_CONVERGENCE = 6
THRESH=10
$end

$solvent
dielectric 4.90
$end
--------------------------------------------------------------

             Standard Nuclear Orientation (Angstroms)
    I     Atom           X                Y                Z
 ----------------------------------------------------------------
    1      C      -0.1353010000    -3.8667250000     0.7632280000
    2      C       0.1060730000    -3.7039630000    -0.6033110000
    3      C       0.1852860000    -2.3570560000    -1.0504230000
    4      H       0.2257830000    -4.5610920000    -1.2831880000
    5      C       0.0000000000    -1.4406640000     0.0000000000
    6      S      -0.2681870000    -2.2869570000     1.5210210000
    7      C       0.4382090000    -1.9787430000    -2.4835070000
    8      H       0.5501530000    -2.8786780000    -3.1187980000
    9      H       1.3639060000    -1.3760150000    -2.5933810000
   10      H      -0.3937980000    -1.3757280000    -2.9035160000
   11      C       0.0000000000     0.0000000000     0.0000000000
   12      C       0.7479160000     0.4317720000     1.0994460000
   13      C       1.9464250000     1.1237090000     0.7767210000
   14      H       0.4285230000     0.2473780000     2.1360880000
   15      C       2.1375310000     1.2340180000    -0.6125460000
   16      S       0.8161540000     0.4711790000    -1.4868090000
   17      C       2.8884550000     1.6675640000     1.8146090000
   18      H       2.5198420000     1.4547460000     2.8366760000
   19      H       3.0088960000     2.7675430000     1.7262390000
   20      H       3.9012710000     1.2218500000     1.7262280000
   21      H       2.9595870000     1.7086090000    -1.1615750000
   22      H       0.6886740000    -4.3927130000     1.2581110000
   23      H      -1.0790840000    -4.3923470000     0.9462720000
   24      H       1.0635720000    -1.4409370000     0.1876540000
 ----------------------------------------------------------------

   11   -1180.6578246575      6.63e-07  Convergence criterion met
 Total energy in the final basis set =    -1180.6578246575
        RIMP2         total energy =     -1182.6909683725 a.u.

                    Orbital Energies (a.u.)
 --------------------------------------------------------------

 Alpha MOs
 -- Occupied --
-91.9770 -91.9385 -11.2819 -11.2624 -11.2595 -11.2560 -11.2532 -11.2472
-11.2392 -11.2299 -11.2260 -11.2151  -8.9793  -8.9435  -6.6597  -6.6590
 -6.6587  -6.6249  -6.6239  -6.6227  -1.2131  -1.1527  -1.0621  -1.0308
 -1.0071  -0.9540  -0.9130  -0.9069  -0.8043  -0.7759  -0.7250  -0.7022
 -0.6645  -0.6444  -0.6131  -0.5899  -0.5854  -0.5745  -0.5704  -0.5542
 -0.5400  -0.5355  -0.5195  -0.5181  -0.4903  -0.4579  -0.4442  -0.4344
 -0.3543  -0.3341  -0.3275  -0.2591

          Ground-State Mulliken Net Atomic Charges

     Atom                 Charge (a.u.)
  ----------------------------------------
      1 C                    -0.075506
      2 C                    -0.330718
      3 C                    -0.050800
      4 H                     0.175787
      5 C                     0.091898
      6 S                    -0.213311
      7 C                    -0.273246
      8 H                     0.106871
      9 H                     0.110364
     10 H                     0.111296
     11 C                    -0.117437
     12 C                    -0.161270
     13 C                    -0.012382
     14 H                     0.186852
     15 C                    -0.214614
     16 S                     0.040917
     17 C                    -0.266628
     18 H                     0.104515
     19 H                     0.107882
     20 H                     0.104629
     21 H                     0.200850
     22 H                     0.108882
     23 H                     0.112308
     24 H                     0.152860
  ----------------------------------------
  Sum of atomic charges =     0.000000

                    Cartesian Multipole Moments
 -----------------------------------------------------------------
    Charge (ESU x 10^10)
                -0.0000
    Dipole Moment (Debye)
         X       3.5857      Y       0.1948      Z      -1.0884
       Tot       3.7523
    Quadrupole Moments (Debye-Ang)
        XX     -82.9019     XY       3.4386     YY     -83.3304
        XZ       0.5248     YZ       3.4178     ZZ     -84.6908

 Total job time:  772.70s(wall), 770.11s(cpu)
        *  Thank you very much for using Q-Chem.  Have a nice day.  *
