 Q-Chem 5.4, Q-Chem, Inc., Pleasanton, CA (2021)
 Q-Chem 5.4.0 for Intel X86 EM64T Linux

User input:
--------------------------------------------------------------
$molecule
0 1
C	-0.133897	-3.866725	-0.763475
C	0.106669	-3.703963	0.603206
C	0.185154	-2.357056	1.050446
H	0.226709	-4.561092	1.283024
C	-0.000000	-1.440664	-0.000000
S	-0.268206	-2.286957	-1.521018
C	0.437628	-1.978743	2.483610
H	0.549717	-2.878678	3.118875
H	-0.394664	-1.376015	2.903464
H	1.363110	-1.375728	2.593726
C	0.000000	0.000000	0.000000
C	0.075300	0.860311	1.099446
C	0.195935	2.238951	0.776721
H	0.043151	0.492916	2.136088
C	0.215188	2.458766	-0.612546
S	0.082160	0.938811	-1.486809
C	0.290762	3.322559	1.814609
H	0.253664	2.898542	2.836676
H	-0.541206	4.052140	1.726239
H	1.236797	3.896558	1.726228
H	0.297938	3.404370	-1.161575
H	-1.077442	-4.392713	-0.946698
H	0.690363	-4.392347	-1.258274
H	-1.063612	-1.440937	0.187427
$end

$rem
JOBTYPE		SP
EXCHANGE	HF
CORRELATION	pRIMP2
BASIS		cc-pvtz
METHOD		rimp2
AUX_BASIS	rimp2-cc-pvtz
SOLVENT_METHOD	PCM
PURECART	11111
SYMMETRY	false
MEM_TOTAL	110000
SCF_CONVERGENCE = 6
THRESH=10
$end

$solvent
dielectric 4.90
$end
--------------------------------------------------------------

             Standard Nuclear Orientation (Angstroms)
    I     Atom           X                Y                Z
 ----------------------------------------------------------------
    1      C      -0.1338970000    -3.8667250000    -0.7634750000
    2      C       0.1066690000    -3.7039630000     0.6032060000
    3      C       0.1851540000    -2.3570560000     1.0504460000
    4      H       0.2267090000    -4.5610920000     1.2830240000
    5      C       0.0000000000    -1.4406640000     0.0000000000
    6      S      -0.2682060000    -2.2869570000    -1.5210180000
    7      C       0.4376280000    -1.9787430000     2.4836100000
    8      H       0.5497170000    -2.8786780000     3.1188750000
    9      H      -0.3946640000    -1.3760150000     2.9034640000
   10      H       1.3631100000    -1.3757280000     2.5937260000
   11      C       0.0000000000     0.0000000000     0.0000000000
   12      C       0.0753000000     0.8603110000     1.0994460000
   13      C       0.1959350000     2.2389510000     0.7767210000
   14      H       0.0431510000     0.4929160000     2.1360880000
   15      C       0.2151880000     2.4587660000    -0.6125460000
   16      S       0.0821600000     0.9388110000    -1.4868090000
   17      C       0.2907620000     3.3225590000     1.8146090000
   18      H       0.2536640000     2.8985420000     2.8366760000
   19      H      -0.5412060000     4.0521400000     1.7262390000
   20      H       1.2367970000     3.8965580000     1.7262280000
   21      H       0.2979380000     3.4043700000    -1.1615750000
   22      H      -1.0774420000    -4.3927130000    -0.9466980000
   23      H       0.6903630000    -4.3923470000    -1.2582740000
   24      H      -1.0636120000    -1.4409370000     0.1874270000
 ----------------------------------------------------------------

   10   -1180.7560074955      5.09e-07  Convergence criterion met
 Total energy in the final basis set =    -1180.7560074955
        RIMP2         total energy =     -1182.7621580581 a.u.

                    Orbital Energies (a.u.)
 --------------------------------------------------------------

 Alpha MOs
 -- Occupied --
-91.9840 -91.9465 -11.2904 -11.2670 -11.2620 -11.2528 -11.2498 -11.2449
-11.2344 -11.2281 -11.2280 -11.2241  -8.9836  -8.9512  -6.6645  -6.6640
 -6.6633  -6.6326  -6.6316  -6.6303  -1.2027  -1.1522  -1.0606  -1.0324
 -1.0015  -0.9615  -0.9166  -0.8995  -0.8188  -0.7637  -0.7265  -0.7067
 -0.6586  -0.6491  -0.6105  -0.5943  -0.5863  -0.5689  -0.5600  -0.5522
 -0.5446  -0.5360  -0.5238  -0.5016  -0.4861  -0.4819  -0.4697  -0.4433
 -0.3614  -0.3439  -0.3237  -0.2640

          Ground-State Mulliken Net Atomic Charges

     Atom                 Charge (a.u.)
  ----------------------------------------
      1 C                    -0.072962
      2 C                    -0.312641
      3 C                    -0.064663
      4 H                     0.179262
      5 C                     0.147636
      6 S                    -0.180334
      7 C                    -0.302018
      8 H                     0.123027
      9 H                     0.101752
     10 H                     0.115898
     11 C                    -0.062846
     12 C                    -0.277015
     13 C                     0.037952
     14 H                     0.188853
     15 C                    -0.285401
     16 S                     0.009630
     17 C                    -0.273269
     18 H                     0.100437
     19 H                     0.108395
     20 H                     0.108559
     21 H                     0.196156
     22 H                     0.112418
     23 H                     0.113631
     24 H                     0.187544
  ----------------------------------------
  Sum of atomic charges =     0.000000

                    Cartesian Multipole Moments
 -----------------------------------------------------------------
    Charge (ESU x 10^10)
                -0.0000
    Dipole Moment (Debye)
         X      -0.3332      Y      -0.5673      Z       3.8679
       Tot       3.9234
    Quadrupole Moments (Debye-Ang)
        XX     -91.5882     XY       1.7306     YY     -72.8509
        XZ       0.4256     YZ      -2.5359     ZZ     -85.7917

 Total job time:  664.17s(wall), 660.00s(cpu)
        *  Thank you very much for using Q-Chem.  Have a nice day.  *
