 Q-Chem 5.4, Q-Chem, Inc., Pleasanton, CA (2021)
 Q-Chem 5.4.0 for Intel X86 EM64T Linux

User input:
--------------------------------------------------------------
$molecule
0 1
C	-0.763228	-3.866725	-0.135301
C	0.603311	-3.703963	0.106073
C	1.050423	-2.357056	0.185286
H	1.283188	-4.561092	0.225783
C	0.000000	-1.440664	0.000000
S	-1.521021	-2.286957	-0.268187
C	2.483507	-1.978743	0.438209
H	3.118798	-2.878678	0.550153
H	2.593381	-1.376015	1.363906
H	2.903516	-1.375728	-0.393798
C	0.000000	0.000000	0.000000
C	0.295399	0.811508	1.099446
C	0.768742	2.111949	0.776721
H	0.169256	0.464952	2.136088
C	0.844232	2.319291	-0.612546
S	0.322342	0.885558	-1.486809
C	1.140796	3.134091	1.814609
H	0.995218	2.734123	2.836676
H	0.526006	4.054142	1.726239
H	2.203157	3.443680	1.726228
H	1.168902	3.211257	-1.161575
H	-1.258111	-4.392713	0.688674
H	-0.946272	-4.392347	-1.079084
H	-0.187654	-1.440937	1.063572
$end

$rem
JOBTYPE		SP
EXCHANGE	HF
CORRELATION	pRIMP2
BASIS		cc-pvtz
METHOD		rimp2
AUX_BASIS	rimp2-cc-pvtz
SOLVENT_METHOD	PCM
PURECART	11111
SYMMETRY	false
MEM_TOTAL	110000
SCF_CONVERGENCE = 6
THRESH=10
$end

$solvent
dielectric 4.90
$end
--------------------------------------------------------------

             Standard Nuclear Orientation (Angstroms)
    I     Atom           X                Y                Z
 ----------------------------------------------------------------
    1      C      -0.7632280000    -3.8667250000    -0.1353010000
    2      C       0.6033110000    -3.7039630000     0.1060730000
    3      C       1.0504230000    -2.3570560000     0.1852860000
    4      H       1.2831880000    -4.5610920000     0.2257830000
    5      C       0.0000000000    -1.4406640000     0.0000000000
    6      S      -1.5210210000    -2.2869570000    -0.2681870000
    7      C       2.4835070000    -1.9787430000     0.4382090000
    8      H       3.1187980000    -2.8786780000     0.5501530000
    9      H       2.5933810000    -1.3760150000     1.3639060000
   10      H       2.9035160000    -1.3757280000    -0.3937980000
   11      C       0.0000000000     0.0000000000     0.0000000000
   12      C       0.2953990000     0.8115080000     1.0994460000
   13      C       0.7687420000     2.1119490000     0.7767210000
   14      H       0.1692560000     0.4649520000     2.1360880000
   15      C       0.8442320000     2.3192910000    -0.6125460000
   16      S       0.3223420000     0.8855580000    -1.4868090000
   17      C       1.1407960000     3.1340910000     1.8146090000
   18      H       0.9952180000     2.7341230000     2.8366760000
   19      H       0.5260060000     4.0541420000     1.7262390000
   20      H       2.2031570000     3.4436800000     1.7262280000
   21      H       1.1689020000     3.2112570000    -1.1615750000
   22      H      -1.2581110000    -4.3927130000     0.6886740000
   23      H      -0.9462720000    -4.3923470000    -1.0790840000
   24      H      -0.1876540000    -1.4409370000     1.0635720000
 ----------------------------------------------------------------

   10   -1180.7568600160      5.31e-07  Convergence criterion met
 Total energy in the final basis set =    -1180.7568600160
        RIMP2         total energy =     -1182.7637492655 a.u.

                    Orbital Energies (a.u.)
 --------------------------------------------------------------

 Alpha MOs
 -- Occupied --
-91.9801 -91.9391 -11.2781 -11.2681 -11.2627 -11.2548 -11.2515 -11.2466
-11.2399 -11.2311 -11.2300 -11.2192  -8.9802  -8.9439  -6.6611  -6.6605
 -6.6600  -6.6253  -6.6242  -6.6230  -1.1982  -1.1541  -1.0581  -1.0253
 -1.0058  -0.9610  -0.9114  -0.9015  -0.8141  -0.7606  -0.7369  -0.7036
 -0.6598  -0.6406  -0.6107  -0.5898  -0.5805  -0.5722  -0.5653  -0.5514
 -0.5416  -0.5289  -0.5172  -0.5057  -0.4910  -0.4765  -0.4601  -0.4470
 -0.3546  -0.3420  -0.3133  -0.2811

          Ground-State Mulliken Net Atomic Charges

     Atom                 Charge (a.u.)
  ----------------------------------------
      1 C                    -0.077324
      2 C                    -0.327091
      3 C                    -0.015444
      4 H                     0.176122
      5 C                     0.067539
      6 S                    -0.180370
      7 C                    -0.267530
      8 H                     0.114663
      9 H                     0.100379
     10 H                     0.110081
     11 C                    -0.061559
     12 C                    -0.261884
     13 C                     0.032258
     14 H                     0.184253
     15 C                    -0.234433
     16 S                     0.003787
     17 C                    -0.270750
     18 H                     0.102147
     19 H                     0.108633
     20 H                     0.107948
     21 H                     0.197736
     22 H                     0.110116
     23 H                     0.110941
     24 H                     0.169780
  ----------------------------------------
  Sum of atomic charges =     0.000000

                    Cartesian Multipole Moments
 -----------------------------------------------------------------
    Charge (ESU x 10^10)
                -0.0000
    Dipole Moment (Debye)
         X       2.9891      Y       0.7013      Z       2.7539
       Tot       4.1244
    Quadrupole Moments (Debye-Ang)
        XX     -90.4590     XY       0.1205     YY     -74.9377
        XZ       0.0743     YZ      -0.9696     ZZ     -86.1421

 Total job time:  665.10s(wall), 658.29s(cpu)
        *  Thank you very much for using Q-Chem.  Have a nice day.  *
