 Q-Chem 5.4, Q-Chem, Inc., Pleasanton, CA (2021)
 Q-Chem 5.4.0 for Intel X86 EM64T Linux

User input:
--------------------------------------------------------------
$molecule
0 1
C	-0.671636	-3.866725	0.386946
C	0.530345	-3.703963	-0.306544
C	0.923770	-2.357056	-0.533261
H	1.128109	-4.561092	-0.651857
C	0.000000	-1.440664	0.000000
S	-1.337557	-2.286957	0.772250
C	2.184153	-1.978743	-1.260680
H	2.742769	-2.878678	-1.583283
H	2.863347	-1.376015	-0.622180
H	1.971094	-1.375728	-2.168011
C	0.000000	0.000000	0.000000
C	0.661577	0.555087	1.099446
C	1.721724	1.444630	0.776721
H	0.379056	0.318032	2.136088
C	1.890772	1.586449	-0.612546
S	0.721935	0.605744	-1.486809
C	2.555004	2.143805	1.814609
H	2.228946	1.870211	2.836676
H	2.482605	3.247987	1.726239
H	3.629830	1.880735	1.726228
H	2.617927	2.196579	-1.161575
H	-0.521098	-4.392713	1.336254
H	-1.418509	-4.392347	-0.218374
H	-0.539900	-1.440391	-0.935365
$end

$rem
JOBTYPE		SP
EXCHANGE	HF
CORRELATION	pRIMP2
BASIS		cc-pvtz
METHOD		rimp2
AUX_BASIS	rimp2-cc-pvtz
SOLVENT_METHOD	PCM
PURECART	11111
SYMMETRY	false
MEM_TOTAL	110000
SCF_CONVERGENCE = 6
THRESH=10
$end

$solvent
dielectric 4.90
$end
--------------------------------------------------------------

             Standard Nuclear Orientation (Angstroms)
    I     Atom           X                Y                Z
 ----------------------------------------------------------------
    1      C      -0.6716360000    -3.8667250000     0.3869460000
    2      C       0.5303450000    -3.7039630000    -0.3065440000
    3      C       0.9237700000    -2.3570560000    -0.5332610000
    4      H       1.1281090000    -4.5610920000    -0.6518570000
    5      C       0.0000000000    -1.4406640000     0.0000000000
    6      S      -1.3375570000    -2.2869570000     0.7722500000
    7      C       2.1841530000    -1.9787430000    -1.2606800000
    8      H       2.7427690000    -2.8786780000    -1.5832830000
    9      H       2.8633470000    -1.3760150000    -0.6221800000
   10      H       1.9710940000    -1.3757280000    -2.1680110000
   11      C       0.0000000000     0.0000000000     0.0000000000
   12      C       0.6615770000     0.5550870000     1.0994460000
   13      C       1.7217240000     1.4446300000     0.7767210000
   14      H       0.3790560000     0.3180320000     2.1360880000
   15      C       1.8907720000     1.5864490000    -0.6125460000
   16      S       0.7219350000     0.6057440000    -1.4868090000
   17      C       2.5550040000     2.1438050000     1.8146090000
   18      H       2.2289460000     1.8702110000     2.8366760000
   19      H       2.4826050000     3.2479870000     1.7262390000
   20      H       3.6298300000     1.8807350000     1.7262280000
   21      H       2.6179270000     2.1965790000    -1.1615750000
   22      H      -0.5210980000    -4.3927130000     1.3362540000
   23      H      -1.4185090000    -4.3923470000    -0.2183740000
   24      H      -0.5399000000    -1.4403910000    -0.9353650000
 ----------------------------------------------------------------

   10   -1180.6973789952      8.84e-07  Convergence criterion met
 Total energy in the final basis set =    -1180.6973789952
        RIMP2         total energy =     -1182.7192022679 a.u.

                    Orbital Energies (a.u.)
 --------------------------------------------------------------

 Alpha MOs
 -- Occupied --
-91.9821 -91.9360 -11.2818 -11.2590 -11.2577 -11.2527 -11.2511 -11.2504
-11.2370 -11.2301 -11.2249 -11.2145  -8.9831  -8.9406  -6.6638  -6.6631
 -6.6628  -6.6220  -6.6210  -6.6198  -1.2018  -1.1538  -1.0591  -1.0214
 -1.0059  -0.9631  -0.9103  -0.9026  -0.8046  -0.7692  -0.7359  -0.7091
 -0.6501  -0.6299  -0.6132  -0.5904  -0.5805  -0.5727  -0.5701  -0.5531
 -0.5423  -0.5252  -0.5200  -0.5080  -0.4888  -0.4610  -0.4551  -0.4399
 -0.3509  -0.3408  -0.3177  -0.2702

          Ground-State Mulliken Net Atomic Charges

     Atom                 Charge (a.u.)
  ----------------------------------------
      1 C                    -0.068681
      2 C                    -0.336721
      3 C                    -0.033446
      4 H                     0.175041
      5 C                     0.070011
      6 S                    -0.203763
      7 C                    -0.288548
      8 H                     0.113336
      9 H                     0.113264
     10 H                     0.113744
     11 C                    -0.145773
     12 C                    -0.140224
     13 C                    -0.007756
     14 H                     0.190476
     15 C                    -0.194288
     16 S                     0.018767
     17 C                    -0.269113
     18 H                     0.103555
     19 H                     0.107997
     20 H                     0.104858
     21 H                     0.201337
     22 H                     0.108300
     23 H                     0.105282
     24 H                     0.162343
  ----------------------------------------
  Sum of atomic charges =     0.000000

                    Cartesian Multipole Moments
 -----------------------------------------------------------------
    Charge (ESU x 10^10)
                -0.0000
    Dipole Moment (Debye)
         X       4.0330      Y       1.0243      Z      -0.4626
       Tot       4.1867
    Quadrupole Moments (Debye-Ang)
        XX     -84.7550     XY       3.6944     YY     -81.7982
        XZ       0.4785     YZ       3.5771     ZZ     -85.4843

 Total job time:  699.93s(wall), 696.58s(cpu)
        *  Thank you very much for using Q-Chem.  Have a nice day.  *
