 Q-Chem 5.4, Q-Chem, Inc., Pleasanton, CA (2021)
 Q-Chem 5.4.0 for Intel X86 EM64T Linux

User input:
--------------------------------------------------------------
$molecule
0 1
C	0.728625	-3.866725	-0.264439
C	-0.575519	-3.703963	0.209794
C	-1.002336	-2.357056	0.364749
H	-1.224165	-4.561092	0.446060
C	0.000000	-1.440664	0.000000
S	1.451336	-2.286957	-0.528253
C	-2.369885	-1.978743	0.862253
H	-2.976034	-2.878678	1.082953
H	-2.927887	-1.376015	0.115513
H	-2.317620	-1.375728	1.792797
C	0.000000	0.000000	0.000000
C	0.747916	0.431772	1.099446
C	1.946425	1.123709	0.776721
H	0.428523	0.247378	2.136088
C	2.137531	1.234018	-0.612546
S	0.816154	0.471179	-1.486809
C	2.888455	1.667564	1.814609
H	2.519842	1.454746	2.836676
H	3.008896	2.767543	1.726239
H	3.901271	1.221850	1.726228
H	2.959587	1.708609	-1.161575
H	0.745219	-4.392713	-1.225465
H	1.359038	-4.392347	0.461378
H	0.369273	-1.440391	1.014907
$end

$rem
JOBTYPE		SP
EXCHANGE	HF
CORRELATION	pRIMP2
BASIS		cc-pvtz
METHOD		rimp2
AUX_BASIS	rimp2-cc-pvtz
SOLVENT_METHOD	PCM
PURECART	11111
SYMMETRY	false
MEM_TOTAL	110000
SCF_CONVERGENCE = 6
THRESH=10
$end

$solvent
dielectric 4.90
$end
--------------------------------------------------------------

             Standard Nuclear Orientation (Angstroms)
    I     Atom           X                Y                Z
 ----------------------------------------------------------------
    1      C       0.7286250000    -3.8667250000    -0.2644390000
    2      C      -0.5755190000    -3.7039630000     0.2097940000
    3      C      -1.0023360000    -2.3570560000     0.3647490000
    4      H      -1.2241650000    -4.5610920000     0.4460600000
    5      C       0.0000000000    -1.4406640000     0.0000000000
    6      S       1.4513360000    -2.2869570000    -0.5282530000
    7      C      -2.3698850000    -1.9787430000     0.8622530000
    8      H      -2.9760340000    -2.8786780000     1.0829530000
    9      H      -2.9278870000    -1.3760150000     0.1155130000
   10      H      -2.3176200000    -1.3757280000     1.7927970000
   11      C       0.0000000000     0.0000000000     0.0000000000
   12      C       0.7479160000     0.4317720000     1.0994460000
   13      C       1.9464250000     1.1237090000     0.7767210000
   14      H       0.4285230000     0.2473780000     2.1360880000
   15      C       2.1375310000     1.2340180000    -0.6125460000
   16      S       0.8161540000     0.4711790000    -1.4868090000
   17      C       2.8884550000     1.6675640000     1.8146090000
   18      H       2.5198420000     1.4547460000     2.8366760000
   19      H       3.0088960000     2.7675430000     1.7262390000
   20      H       3.9012710000     1.2218500000     1.7262280000
   21      H       2.9595870000     1.7086090000    -1.1615750000
   22      H       0.7452190000    -4.3927130000    -1.2254650000
   23      H       1.3590380000    -4.3923470000     0.4613780000
   24      H       0.3692730000    -1.4403910000     1.0149070000
 ----------------------------------------------------------------

   10   -1180.6749873023      9.49e-07  Convergence criterion met
 Total energy in the final basis set =    -1180.6749873023
        RIMP2         total energy =     -1182.6989366869 a.u.

                    Orbital Energies (a.u.)
 --------------------------------------------------------------

 Alpha MOs
 -- Occupied --
-91.9796 -91.9338 -11.2884 -11.2616 -11.2527 -11.2522 -11.2503 -11.2452
-11.2344 -11.2308 -11.2285 -11.2077  -8.9803  -8.9388  -6.6610  -6.6602
 -6.6600  -6.6202  -6.6191  -6.6179  -1.2077  -1.1519  -1.0583  -1.0255
 -1.0050  -0.9586  -0.9064  -0.9034  -0.8113  -0.7547  -0.7460  -0.6969
 -0.6592  -0.6370  -0.6111  -0.5914  -0.5807  -0.5719  -0.5631  -0.5506
 -0.5378  -0.5335  -0.5068  -0.5041  -0.4931  -0.4706  -0.4510  -0.4379
 -0.3606  -0.3281  -0.3162  -0.2657

          Ground-State Mulliken Net Atomic Charges

     Atom                 Charge (a.u.)
  ----------------------------------------
      1 C                    -0.091437
      2 C                    -0.341578
      3 C                    -0.063184
      4 H                     0.171547
      5 C                     0.069370
      6 S                    -0.178789
      7 C                    -0.273240
      8 H                     0.112241
      9 H                     0.106375
     10 H                     0.097921
     11 C                    -0.163533
     12 C                    -0.111553
     13 C                    -0.015747
     14 H                     0.187862
     15 C                    -0.172536
     16 S                     0.029352
     17 C                    -0.268299
     18 H                     0.102203
     19 H                     0.107892
     20 H                     0.106651
     21 H                     0.201244
     22 H                     0.109290
     23 H                     0.106448
     24 H                     0.171500
  ----------------------------------------
  Sum of atomic charges =     0.000000

                    Cartesian Multipole Moments
 -----------------------------------------------------------------
    Charge (ESU x 10^10)
                -0.0000
    Dipole Moment (Debye)
         X       0.8768      Y       1.0168      Z       3.0117
       Tot       3.2974
    Quadrupole Moments (Debye-Ang)
        XX     -82.1344     XY       8.2110     YY     -85.2377
        XZ       0.6804     YZ      -1.6681     ZZ     -85.0804

 Total job time:  690.53s(wall), 688.17s(cpu)
        *  Thank you very much for using Q-Chem.  Have a nice day.  *
