 Q-Chem 5.4, Q-Chem, Inc., Pleasanton, CA (2021)
 Q-Chem 5.4.0 for Intel X86 EM64T Linux

User input:
--------------------------------------------------------------
$molecule
0 1
C	0.775127	-3.866725	0.000713
C	-0.612565	-3.703963	0.000302
C	-1.066639	-2.357056	-0.000067
H	-1.302900	-4.561092	0.000470
C	0.000000	-1.440664	0.000000
S	1.544483	-2.286957	-0.000009
C	-2.521872	-1.978743	-0.000295
H	-3.166949	-2.878678	-0.000221
H	-2.790821	-1.376015	-0.892850
H	-2.791023	-1.375728	0.892005
C	0.000000	0.000000	0.000000
C	0.661577	0.555087	1.099446
C	1.721724	1.444630	0.776721
H	0.379056	0.318032	2.136088
C	1.890772	1.586449	-0.612546
S	0.721935	0.605744	-1.486809
C	2.555004	2.143805	1.814609
H	2.228946	1.870211	2.836676
H	2.482605	3.247987	1.726239
H	3.629830	1.880735	1.726228
H	2.617927	2.196579	-1.161575
H	1.119411	-4.392713	-0.896681
H	1.119277	-4.392347	0.898372
H	-0.000115	-1.440391	1.080000
$end

$rem
JOBTYPE		SP
EXCHANGE	HF
CORRELATION	pRIMP2
BASIS		cc-pvtz
METHOD		rimp2
AUX_BASIS	rimp2-cc-pvtz
SOLVENT_METHOD	PCM
PURECART	11111
SYMMETRY	false
MEM_TOTAL	110000
SCF_CONVERGENCE = 6
THRESH=10
$end

$solvent
dielectric 4.90
$end
--------------------------------------------------------------

             Standard Nuclear Orientation (Angstroms)
    I     Atom           X                Y                Z
 ----------------------------------------------------------------
    1      C       0.7751270000    -3.8667250000     0.0007130000
    2      C      -0.6125650000    -3.7039630000     0.0003020000
    3      C      -1.0666390000    -2.3570560000    -0.0000670000
    4      H      -1.3029000000    -4.5610920000     0.0004700000
    5      C       0.0000000000    -1.4406640000     0.0000000000
    6      S       1.5444830000    -2.2869570000    -0.0000090000
    7      C      -2.5218720000    -1.9787430000    -0.0002950000
    8      H      -3.1669490000    -2.8786780000    -0.0002210000
    9      H      -2.7908210000    -1.3760150000    -0.8928500000
   10      H      -2.7910230000    -1.3757280000     0.8920050000
   11      C       0.0000000000     0.0000000000     0.0000000000
   12      C       0.6615770000     0.5550870000     1.0994460000
   13      C       1.7217240000     1.4446300000     0.7767210000
   14      H       0.3790560000     0.3180320000     2.1360880000
   15      C       1.8907720000     1.5864490000    -0.6125460000
   16      S       0.7219350000     0.6057440000    -1.4868090000
   17      C       2.5550040000     2.1438050000     1.8146090000
   18      H       2.2289460000     1.8702110000     2.8366760000
   19      H       2.4826050000     3.2479870000     1.7262390000
   20      H       3.6298300000     1.8807350000     1.7262280000
   21      H       2.6179270000     2.1965790000    -1.1615750000
   22      H       1.1194110000    -4.3927130000    -0.8966810000
   23      H       1.1192770000    -4.3923470000     0.8983720000
   24      H      -0.0001150000    -1.4403910000     1.0800000000
 ----------------------------------------------------------------

   10   -1180.7141439316      7.20e-07  Convergence criterion met
 Total energy in the final basis set =    -1180.7141439316
        RIMP2         total energy =     -1182.7304025006 a.u.

                    Orbital Energies (a.u.)
 --------------------------------------------------------------

 Alpha MOs
 -- Occupied --
-91.9776 -91.9364 -11.2815 -11.2602 -11.2564 -11.2553 -11.2519 -11.2492
-11.2375 -11.2302 -11.2293 -11.2122  -8.9782  -8.9414  -6.6591  -6.6583
 -6.6580  -6.6227  -6.6217  -6.6204  -1.2020  -1.1535  -1.0576  -1.0248
 -1.0057  -0.9579  -0.9091  -0.9022  -0.8117  -0.7581  -0.7430  -0.6966
 -0.6577  -0.6375  -0.6115  -0.5904  -0.5802  -0.5724  -0.5644  -0.5494
 -0.5391  -0.5330  -0.5065  -0.5059  -0.4931  -0.4667  -0.4549  -0.4454
 -0.3601  -0.3316  -0.3134  -0.2773

          Ground-State Mulliken Net Atomic Charges

     Atom                 Charge (a.u.)
  ----------------------------------------
      1 C                    -0.079222
      2 C                    -0.331500
      3 C                    -0.055109
      4 H                     0.173210
      5 C                     0.060358
      6 S                    -0.180943
      7 C                    -0.272737
      8 H                     0.112544
      9 H                     0.106177
     10 H                     0.099739
     11 C                    -0.105631
     12 C                    -0.190548
     13 C                     0.020774
     14 H                     0.181622
     15 C                    -0.190434
     16 S                     0.015992
     17 C                    -0.267205
     18 H                     0.102236
     19 H                     0.107650
     20 H                     0.107754
     21 H                     0.199515
     22 H                     0.110707
     23 H                     0.107168
     24 H                     0.167881
  ----------------------------------------
  Sum of atomic charges =     0.000000

                    Cartesian Multipole Moments
 -----------------------------------------------------------------
    Charge (ESU x 10^10)
                -0.0000
    Dipole Moment (Debye)
         X      -0.2204      Y       0.9433      Z       2.3717
       Tot       2.5619
    Quadrupole Moments (Debye-Ang)
        XX     -84.7183     XY       9.4655     YY     -81.5811
        XZ       0.9155     YZ      -0.5841     ZZ     -85.5137

 Total job time:  667.30s(wall), 664.58s(cpu)
        *  Thank you very much for using Q-Chem.  Have a nice day.  *
