 Q-Chem 5.4, Q-Chem, Inc., Pleasanton, CA (2021)
 Q-Chem 5.4.0 for Intel X86 EM64T Linux

User input:
--------------------------------------------------------------
$molecule
0 1
C	0.670748	-3.808105	0.775127
C	0.642889	-3.647744	-0.612565
C	0.409365	-2.321236	-1.066639
H	0.791563	-4.491881	-1.302900
C	0.250169	-1.418777	0.000000
S	0.397135	-2.252211	1.544483
C	0.343896	-1.948630	-2.521872
H	0.500095	-2.834906	-3.166949
H	1.118228	-1.200068	-2.790821
H	-0.639561	-1.509723	-2.791023
C	0.000000	0.000000	0.000000
C	0.431829	0.747884	1.099446
C	1.123799	1.946373	0.776721
H	0.247423	0.428497	2.136088
C	1.234147	2.137457	-0.612546
S	0.471221	0.816130	-1.486809
C	1.667694	2.888380	1.814609
H	1.454874	2.519768	2.836676
H	1.222009	3.901210	1.726239
H	2.767675	3.008788	1.726228
H	1.708773	2.959493	-1.161575
H	1.645845	-4.170271	1.119411
H	-0.122001	-4.481618	1.119277
H	-0.813471	-1.606048	-0.000115
$end

$rem
JOBTYPE		SP
EXCHANGE	HF
CORRELATION	pRIMP2
BASIS		cc-pvtz
METHOD		rimp2
AUX_BASIS	rimp2-cc-pvtz
SOLVENT_METHOD	PCM
PURECART	11111
SYMMETRY	false
MEM_TOTAL	110000
SCF_CONVERGENCE = 6
THRESH=10
$end

$solvent
dielectric 4.90
$end
--------------------------------------------------------------

             Standard Nuclear Orientation (Angstroms)
    I     Atom           X                Y                Z
 ----------------------------------------------------------------
    1      C       0.6707480000    -3.8081050000     0.7751270000
    2      C       0.6428890000    -3.6477440000    -0.6125650000
    3      C       0.4093650000    -2.3212360000    -1.0666390000
    4      H       0.7915630000    -4.4918810000    -1.3029000000
    5      C       0.2501690000    -1.4187770000     0.0000000000
    6      S       0.3971350000    -2.2522110000     1.5444830000
    7      C       0.3438960000    -1.9486300000    -2.5218720000
    8      H       0.5000950000    -2.8349060000    -3.1669490000
    9      H       1.1182280000    -1.2000680000    -2.7908210000
   10      H      -0.6395610000    -1.5097230000    -2.7910230000
   11      C       0.0000000000     0.0000000000     0.0000000000
   12      C       0.4318290000     0.7478840000     1.0994460000
   13      C       1.1237990000     1.9463730000     0.7767210000
   14      H       0.2474230000     0.4284970000     2.1360880000
   15      C       1.2341470000     2.1374570000    -0.6125460000
   16      S       0.4712210000     0.8161300000    -1.4868090000
   17      C       1.6676940000     2.8883800000     1.8146090000
   18      H       1.4548740000     2.5197680000     2.8366760000
   19      H       1.2220090000     3.9012100000     1.7262390000
   20      H       2.7676750000     3.0087880000     1.7262280000
   21      H       1.7087730000     2.9594930000    -1.1615750000
   22      H       1.6458450000    -4.1702710000     1.1194110000
   23      H      -0.1220010000    -4.4816180000     1.1192770000
   24      H      -0.8134710000    -1.6060480000    -0.0001150000
 ----------------------------------------------------------------

   10   -1180.7120423338      7.58e-07  Convergence criterion met
 Total energy in the final basis set =    -1180.7120423338
        RIMP2         total energy =     -1182.7306993492 a.u.

                    Orbital Energies (a.u.)
 --------------------------------------------------------------

 Alpha MOs
 -- Occupied --
-91.9775 -91.9430 -11.2745 -11.2650 -11.2644 -11.2537 -11.2503 -11.2413
-11.2411 -11.2296 -11.2279 -11.2170  -8.9785  -8.9477  -6.6593  -6.6586
 -6.6580  -6.6290  -6.6280  -6.6267  -1.2018  -1.1527  -1.0592  -1.0273
 -1.0064  -0.9568  -0.9140  -0.9028  -0.8110  -0.7721  -0.7196  -0.7050
 -0.6544  -0.6453  -0.6111  -0.5922  -0.5832  -0.5740  -0.5673  -0.5515
 -0.5398  -0.5340  -0.5166  -0.5152  -0.4868  -0.4664  -0.4550  -0.4410
 -0.3568  -0.3387  -0.3267  -0.2582

          Ground-State Mulliken Net Atomic Charges

     Atom                 Charge (a.u.)
  ----------------------------------------
      1 C                    -0.072705
      2 C                    -0.338485
      3 C                    -0.035022
      4 H                     0.177554
      5 C                     0.094410
      6 S                    -0.196082
      7 C                    -0.303438
      8 H                     0.117473
      9 H                     0.116901
     10 H                     0.111502
     11 C                    -0.052767
     12 C                    -0.261034
     13 C                     0.038346
     14 H                     0.184440
     15 C                    -0.248307
     16 S                     0.015493
     17 C                    -0.269136
     18 H                     0.102832
     19 H                     0.108078
     20 H                     0.107031
     21 H                     0.196648
     22 H                     0.111300
     23 H                     0.110987
     24 H                     0.183981
  ----------------------------------------
  Sum of atomic charges =     0.000000

                    Cartesian Multipole Moments
 -----------------------------------------------------------------
    Charge (ESU x 10^10)
                -0.0000
    Dipole Moment (Debye)
         X       0.4220      Y       0.2368      Z      -1.0170
       Tot       1.1263
    Quadrupole Moments (Debye-Ang)
        XX     -89.3267     XY       4.7150     YY     -76.7731
        XZ      -0.5690     YZ       4.2726     ZZ     -85.3103

 Total job time:  710.97s(wall), 706.91s(cpu)
        *  Thank you very much for using Q-Chem.  Have a nice day.  *
