 Q-Chem 5.4, Q-Chem, Inc., Pleasanton, CA (2021)
 Q-Chem 5.4.0 for Intel X86 EM64T Linux

User input:
--------------------------------------------------------------
$molecule
0 1
C	-0.135301	-3.866725	0.763228
C	0.106073	-3.703963	-0.603311
C	0.185286	-2.357056	-1.050423
H	0.225783	-4.561092	-1.283188
C	-0.000000	-1.440664	-0.000000
S	-0.268187	-2.286957	1.521021
C	0.438209	-1.978743	-2.483507
H	0.550153	-2.878678	-3.118798
H	1.363906	-1.376015	-2.593381
H	-0.393798	-1.375728	-2.903516
C	0.000000	0.000000	0.000000
C	0.555137	0.661535	1.099446
C	1.444710	1.721658	0.776721
H	0.318072	0.379023	2.136088
C	1.586563	1.890676	-0.612546
S	0.605781	0.721904	-1.486809
C	2.143920	2.554907	1.814609
H	1.870325	2.228851	2.836676
H	1.880882	3.629742	1.726239
H	3.248098	2.482476	1.726228
H	2.196723	2.617806	-1.161575
H	0.688674	-4.392713	1.258111
H	-1.079084	-4.392347	0.946272
H	1.063572	-1.440937	0.187654
$end

$rem
JOBTYPE		SP
EXCHANGE	HF
CORRELATION	pRIMP2
BASIS		cc-pvtz
METHOD		rimp2
AUX_BASIS	rimp2-cc-pvtz
SOLVENT_METHOD	PCM
PURECART	11111
SYMMETRY	false
MEM_TOTAL	110000
SCF_CONVERGENCE = 6
THRESH=10
$end

$solvent
dielectric 4.90
$end
--------------------------------------------------------------

             Standard Nuclear Orientation (Angstroms)
    I     Atom           X                Y                Z
 ----------------------------------------------------------------
    1      C      -0.1353010000    -3.8667250000     0.7632280000
    2      C       0.1060730000    -3.7039630000    -0.6033110000
    3      C       0.1852860000    -2.3570560000    -1.0504230000
    4      H       0.2257830000    -4.5610920000    -1.2831880000
    5      C       0.0000000000    -1.4406640000     0.0000000000
    6      S      -0.2681870000    -2.2869570000     1.5210210000
    7      C       0.4382090000    -1.9787430000    -2.4835070000
    8      H       0.5501530000    -2.8786780000    -3.1187980000
    9      H       1.3639060000    -1.3760150000    -2.5933810000
   10      H      -0.3937980000    -1.3757280000    -2.9035160000
   11      C       0.0000000000     0.0000000000     0.0000000000
   12      C       0.5551370000     0.6615350000     1.0994460000
   13      C       1.4447100000     1.7216580000     0.7767210000
   14      H       0.3180720000     0.3790230000     2.1360880000
   15      C       1.5865630000     1.8906760000    -0.6125460000
   16      S       0.6057810000     0.7219040000    -1.4868090000
   17      C       2.1439200000     2.5549070000     1.8146090000
   18      H       1.8703250000     2.2288510000     2.8366760000
   19      H       1.8808820000     3.6297420000     1.7262390000
   20      H       3.2480980000     2.4824760000     1.7262280000
   21      H       2.1967230000     2.6178060000    -1.1615750000
   22      H       0.6886740000    -4.3927130000     1.2581110000
   23      H      -1.0790840000    -4.3923470000     0.9462720000
   24      H       1.0635720000    -1.4409370000     0.1876540000
 ----------------------------------------------------------------

   10   -1180.7191397416      6.94e-07  Convergence criterion met
 Total energy in the final basis set =    -1180.7191397416
        RIMP2         total energy =     -1182.7365577972 a.u.

                    Orbital Energies (a.u.)
 --------------------------------------------------------------

 Alpha MOs
 -- Occupied --
-91.9787 -91.9428 -11.2808 -11.2628 -11.2626 -11.2595 -11.2509 -11.2420
-11.2352 -11.2292 -11.2283 -11.2194  -8.9796  -8.9476  -6.6604  -6.6598
 -6.6592  -6.6290  -6.6279  -6.6267  -1.2055  -1.1525  -1.0609  -1.0280
 -1.0066  -0.9550  -0.9142  -0.9034  -0.8092  -0.7729  -0.7197  -0.7019
 -0.6629  -0.6463  -0.6118  -0.5872  -0.5842  -0.5727  -0.5693  -0.5534
 -0.5416  -0.5336  -0.5171  -0.5150  -0.4901  -0.4697  -0.4537  -0.4412
 -0.3565  -0.3396  -0.3267  -0.2613

          Ground-State Mulliken Net Atomic Charges

     Atom                 Charge (a.u.)
  ----------------------------------------
      1 C                    -0.074181
      2 C                    -0.321609
      3 C                    -0.047871
      4 H                     0.177774
      5 C                     0.090430
      6 S                    -0.199430
      7 C                    -0.294908
      8 H                     0.113789
      9 H                     0.112991
     10 H                     0.112987
     11 C                    -0.026624
     12 C                    -0.271762
     13 C                     0.033383
     14 H                     0.180477
     15 C                    -0.262341
     16 S                     0.018000
     17 C                    -0.268955
     18 H                     0.103173
     19 H                     0.108469
     20 H                     0.106447
     21 H                     0.197611
     22 H                     0.110517
     23 H                     0.112775
     24 H                     0.188856
  ----------------------------------------
  Sum of atomic charges =     0.000000

                    Cartesian Multipole Moments
 -----------------------------------------------------------------
    Charge (ESU x 10^10)
                -0.0000
    Dipole Moment (Debye)
         X       2.4565      Y      -0.1738      Z      -0.9875
       Tot       2.6533
    Quadrupole Moments (Debye-Ang)
        XX     -87.4288     XY       3.1272     YY     -78.4056
        XZ       0.7472     YZ       3.8475     ZZ     -85.2906

 Total job time:  675.68s(wall), 672.44s(cpu)
        *  Thank you very much for using Q-Chem.  Have a nice day.  *
