 Q-Chem 5.4, Q-Chem, Inc., Pleasanton, CA (2021)
 Q-Chem 5.4.0 for Intel X86 EM64T Linux

User input:
--------------------------------------------------------------
$molecule
0 1
C	-0.728625	-3.866725	0.264439
C	0.575519	-3.703963	-0.209794
C	1.002336	-2.357056	-0.364749
H	1.224165	-4.561092	-0.446060
C	0.000000	-1.440664	0.000000
S	-1.451336	-2.286957	0.528253
C	2.369885	-1.978743	-0.862253
H	2.976034	-2.878678	-1.082953
H	2.927887	-1.376015	-0.115513
H	2.317620	-1.375728	-1.792797
C	0.000000	0.000000	0.000000
C	0.747916	0.431772	1.099446
C	1.946425	1.123709	0.776721
H	0.428523	0.247378	2.136088
C	2.137531	1.234018	-0.612546
S	0.816154	0.471179	-1.486809
C	2.888455	1.667564	1.814609
H	2.519842	1.454746	2.836676
H	3.008896	2.767543	1.726239
H	3.901271	1.221850	1.726228
H	2.959587	1.708609	-1.161575
H	-0.745219	-4.392713	1.225465
H	-1.359038	-4.392347	-0.461378
H	-0.369273	-1.440391	-1.014907
$end

$rem
JOBTYPE		SP
EXCHANGE	HF
CORRELATION	pRIMP2
BASIS		cc-pvtz
METHOD		rimp2
AUX_BASIS	rimp2-cc-pvtz
SOLVENT_METHOD	PCM
PURECART	11111
SYMMETRY	false
MEM_TOTAL	110000
SCF_CONVERGENCE = 6
THRESH=10
$end

$solvent
dielectric 4.90
$end
--------------------------------------------------------------

             Standard Nuclear Orientation (Angstroms)
    I     Atom           X                Y                Z
 ----------------------------------------------------------------
    1      C      -0.7286250000    -3.8667250000     0.2644390000
    2      C       0.5755190000    -3.7039630000    -0.2097940000
    3      C       1.0023360000    -2.3570560000    -0.3647490000
    4      H       1.2241650000    -4.5610920000    -0.4460600000
    5      C       0.0000000000    -1.4406640000     0.0000000000
    6      S      -1.4513360000    -2.2869570000     0.5282530000
    7      C       2.3698850000    -1.9787430000    -0.8622530000
    8      H       2.9760340000    -2.8786780000    -1.0829530000
    9      H       2.9278870000    -1.3760150000    -0.1155130000
   10      H       2.3176200000    -1.3757280000    -1.7927970000
   11      C       0.0000000000     0.0000000000     0.0000000000
   12      C       0.7479160000     0.4317720000     1.0994460000
   13      C       1.9464250000     1.1237090000     0.7767210000
   14      H       0.4285230000     0.2473780000     2.1360880000
   15      C       2.1375310000     1.2340180000    -0.6125460000
   16      S       0.8161540000     0.4711790000    -1.4868090000
   17      C       2.8884550000     1.6675640000     1.8146090000
   18      H       2.5198420000     1.4547460000     2.8366760000
   19      H       3.0088960000     2.7675430000     1.7262390000
   20      H       3.9012710000     1.2218500000     1.7262280000
   21      H       2.9595870000     1.7086090000    -1.1615750000
   22      H      -0.7452190000    -4.3927130000     1.2254650000
   23      H      -1.3590380000    -4.3923470000    -0.4613780000
   24      H      -0.3692730000    -1.4403910000    -1.0149070000
 ----------------------------------------------------------------

   11   -1180.6709588617      4.87e-07  Convergence criterion met
 Total energy in the final basis set =    -1180.6709588617
        RIMP2         total energy =     -1182.6981158766 a.u.

                    Orbital Energies (a.u.)
 --------------------------------------------------------------

 Alpha MOs
 -- Occupied --
-91.9807 -91.9325 -11.2894 -11.2604 -11.2563 -11.2527 -11.2493 -11.2477
-11.2350 -11.2312 -11.2228 -11.2131  -8.9821  -8.9372  -6.6628  -6.6620
 -6.6618  -6.6186  -6.6176  -6.6164  -1.2064  -1.1535  -1.0602  -1.0206
 -1.0066  -0.9648  -0.9111  -0.9010  -0.8025  -0.7697  -0.7411  -0.7106
 -0.6497  -0.6269  -0.6152  -0.5898  -0.5828  -0.5721  -0.5693  -0.5551
 -0.5429  -0.5239  -0.5216  -0.5059  -0.4874  -0.4646  -0.4480  -0.4340
 -0.3490  -0.3427  -0.3176  -0.2685

          Ground-State Mulliken Net Atomic Charges

     Atom                 Charge (a.u.)
  ----------------------------------------
      1 C                    -0.068406
      2 C                    -0.335506
      3 C                    -0.027875
      4 H                     0.173593
      5 C                     0.079240
      6 S                    -0.218401
      7 C                    -0.310748
      8 H                     0.117921
      9 H                     0.117679
     10 H                     0.117447
     11 C                    -0.181567
     12 C                    -0.103783
     13 C                    -0.035192
     14 H                     0.194009
     15 C                    -0.151587
     16 S                     0.015914
     17 C                    -0.269567
     18 H                     0.104159
     19 H                     0.110913
     20 H                     0.103324
     21 H                     0.201533
     22 H                     0.106635
     23 H                     0.103417
     24 H                     0.156848
  ----------------------------------------
  Sum of atomic charges =     0.000000

                    Cartesian Multipole Moments
 -----------------------------------------------------------------
    Charge (ESU x 10^10)
                -0.0000
    Dipole Moment (Debye)
         X       5.0432      Y       1.0460      Z      -0.0019
       Tot       5.1505
    Quadrupole Moments (Debye-Ang)
        XX     -82.5493     XY       2.6606     YY     -84.4926
        XZ       0.5988     YZ       3.1053     ZZ     -85.1249

 Total job time:  809.46s(wall), 804.63s(cpu)
        *  Thank you very much for using Q-Chem.  Have a nice day.  *
