 Q-Chem 5.4, Q-Chem, Inc., Pleasanton, CA (2021)
 Q-Chem 5.4.0 for Intel X86 EM64T Linux

User input:
--------------------------------------------------------------
$molecule
0 1
C	-0.594240	-3.866725	0.497696
C	0.469057	-3.703963	-0.393981
C	0.817136	-2.357056	-0.685571
H	0.997777	-4.561092	-0.837848
C	-0.000000	-1.440664	-0.000000
S	-1.183137	-2.286957	0.992782
C	1.932056	-1.978743	-1.620802
H	2.426166	-2.878678	-2.035506
H	2.711806	-1.376015	-1.109943
H	1.564678	-1.375728	-2.477350
C	0.000000	0.000000	0.000000
C	0.075300	0.860311	1.099446
C	0.195935	2.238951	0.776721
H	0.043151	0.492916	2.136088
C	0.215188	2.458766	-0.612546
S	0.082160	0.938811	-1.486809
C	0.290762	3.322559	1.814609
H	0.253664	2.898542	2.836676
H	-0.541206	4.052140	1.726239
H	1.236797	3.896558	1.726228
H	0.297938	3.404370	-1.161575
H	-0.281143	-4.392713	1.406441
H	-1.434879	-4.392347	0.031265
H	0.694122	-1.440937	0.827402
$end

$rem
JOBTYPE		SP
EXCHANGE	HF
CORRELATION	pRIMP2
BASIS		cc-pvtz
METHOD		rimp2
AUX_BASIS	rimp2-cc-pvtz
SOLVENT_METHOD	PCM
PURECART	11111
SYMMETRY	false
MEM_TOTAL	110000
SCF_CONVERGENCE = 6
THRESH=10
$end

$solvent
dielectric 4.90
$end
--------------------------------------------------------------

             Standard Nuclear Orientation (Angstroms)
    I     Atom           X                Y                Z
 ----------------------------------------------------------------
    1      C      -0.5942400000    -3.8667250000     0.4976960000
    2      C       0.4690570000    -3.7039630000    -0.3939810000
    3      C       0.8171360000    -2.3570560000    -0.6855710000
    4      H       0.9977770000    -4.5610920000    -0.8378480000
    5      C       0.0000000000    -1.4406640000     0.0000000000
    6      S      -1.1831370000    -2.2869570000     0.9927820000
    7      C       1.9320560000    -1.9787430000    -1.6208020000
    8      H       2.4261660000    -2.8786780000    -2.0355060000
    9      H       2.7118060000    -1.3760150000    -1.1099430000
   10      H       1.5646780000    -1.3757280000    -2.4773500000
   11      C       0.0000000000     0.0000000000     0.0000000000
   12      C       0.0753000000     0.8603110000     1.0994460000
   13      C       0.1959350000     2.2389510000     0.7767210000
   14      H       0.0431510000     0.4929160000     2.1360880000
   15      C       0.2151880000     2.4587660000    -0.6125460000
   16      S       0.0821600000     0.9388110000    -1.4868090000
   17      C       0.2907620000     3.3225590000     1.8146090000
   18      H       0.2536640000     2.8985420000     2.8366760000
   19      H      -0.5412060000     4.0521400000     1.7262390000
   20      H       1.2367970000     3.8965580000     1.7262280000
   21      H       0.2979380000     3.4043700000    -1.1615750000
   22      H      -0.2811430000    -4.3927130000     1.4064410000
   23      H      -1.4348790000    -4.3923470000     0.0312650000
   24      H       0.6941220000    -1.4409370000     0.8274020000
 ----------------------------------------------------------------

   10   -1180.7603783867      4.93e-07  Convergence criterion met
 Total energy in the final basis set =    -1180.7603783867
        RIMP2         total energy =     -1182.7659993685 a.u.

                    Orbital Energies (a.u.)
 --------------------------------------------------------------

 Alpha MOs
 -- Occupied --
-91.9821 -91.9429 -11.2859 -11.2643 -11.2591 -11.2573 -11.2507 -11.2420
-11.2373 -11.2317 -11.2286 -11.2210  -8.9819  -8.9476  -6.6628  -6.6623
 -6.6617  -6.6289  -6.6279  -6.6266  -1.1998  -1.1530  -1.0592  -1.0262
 -1.0074  -0.9576  -0.9136  -0.9012  -0.8146  -0.7676  -0.7279  -0.7004
 -0.6623  -0.6431  -0.6106  -0.5871  -0.5804  -0.5733  -0.5677  -0.5524
 -0.5422  -0.5324  -0.5145  -0.5065  -0.4917  -0.4817  -0.4585  -0.4491
 -0.3561  -0.3434  -0.3189  -0.2711

          Ground-State Mulliken Net Atomic Charges

     Atom                 Charge (a.u.)
  ----------------------------------------
      1 C                    -0.077348
      2 C                    -0.324515
      3 C                    -0.027632
      4 H                     0.177558
      5 C                     0.090401
      6 S                    -0.176556
      7 C                    -0.278695
      8 H                     0.115362
      9 H                     0.108328
     10 H                     0.108916
     11 C                    -0.058119
     12 C                    -0.266898
     13 C                     0.027085
     14 H                     0.183892
     15 C                    -0.254312
     16 S                     0.007001
     17 C                    -0.271714
     18 H                     0.102504
     19 H                     0.108591
     20 H                     0.107797
     21 H                     0.195962
     22 H                     0.110726
     23 H                     0.113506
     24 H                     0.178160
  ----------------------------------------
  Sum of atomic charges =     0.000000

                    Cartesian Multipole Moments
 -----------------------------------------------------------------
    Charge (ESU x 10^10)
                -0.0000
    Dipole Moment (Debye)
         X       2.5482      Y       0.1313      Z       0.5058
       Tot       2.6012
    Quadrupole Moments (Debye-Ang)
        XX     -91.9019     XY      -2.8093     YY     -73.7631
        XZ      -0.0718     YZ       2.3909     ZZ     -85.6118

 Total job time:  653.91s(wall), 650.49s(cpu)
        *  Thank you very much for using Q-Chem.  Have a nice day.  *
