 Q-Chem 5.4, Q-Chem, Inc., Pleasanton, CA (2021)
 Q-Chem 5.4.0 for Intel X86 EM64T Linux

User input:
--------------------------------------------------------------
$molecule
0 1
C	0.763228	-3.866725	0.135301
C	-0.603311	-3.703963	-0.106073
C	-1.050423	-2.357056	-0.185286
H	-1.283188	-4.561092	-0.225783
C	0.000000	-1.440664	0.000000
S	1.521021	-2.286957	0.268187
C	-2.483507	-1.978743	-0.438209
H	-3.118798	-2.878678	-0.550153
H	-2.593381	-1.376015	-1.363906
H	-2.903516	-1.375728	0.393798
C	0.000000	0.000000	0.000000
C	0.000033	0.863600	1.099446
C	0.000052	2.247508	0.776721
H	0.000026	0.494801	2.136088
C	0.000074	2.468165	-0.612546
S	0.000024	0.942399	-1.486809
C	0.000075	3.335257	1.814609
H	0.000074	2.909620	2.836676
H	-0.892314	3.989552	1.726239
H	0.892483	3.989525	1.726228
H	0.000094	3.417382	-1.161575
H	1.258111	-4.392713	-0.688674
H	0.946272	-4.392347	1.079084
H	0.187654	-1.440937	-1.063572
$end

$rem
JOBTYPE		SP
EXCHANGE	HF
CORRELATION	pRIMP2
BASIS		cc-pvtz
METHOD		rimp2
AUX_BASIS	rimp2-cc-pvtz
SOLVENT_METHOD	PCM
PURECART	11111
SYMMETRY	false
MEM_TOTAL	110000
SCF_CONVERGENCE = 6
THRESH=10
$end

$solvent
dielectric 4.90
$end
--------------------------------------------------------------

   10   -1180.7601566833      4.98e-07  Convergence criterion met
 Total energy in the final basis set =    -1180.7601566833
        RIMP2         total energy =     -1182.7643288238 a.u.
 Total job time:  646.24s(wall), 643.15s(cpu)
        *  Thank you very much for using Q-Chem.  Have a nice day.  *
 Q-Chem 5.4, Q-Chem, Inc., Pleasanton, CA (2021)
 Q-Chem 5.4.0 for Intel X86 EM64T Linux

User input:
--------------------------------------------------------------
$molecule
0 1
C	0.763228	-3.866725	0.135301
C	-0.603311	-3.703963	-0.106073
C	-1.050423	-2.357056	-0.185286
H	-1.283188	-4.561092	-0.225783
C	0.000000	-1.440664	0.000000
S	1.521021	-2.286957	0.268187
C	-2.483507	-1.978743	-0.438209
H	-3.118798	-2.878678	-0.550153
H	-2.593381	-1.376015	-1.363906
H	-2.903516	-1.375728	0.393798
C	0.000000	0.000000	0.000000
C	0.000033	0.863600	1.099446
C	0.000052	2.247508	0.776721
H	0.000026	0.494801	2.136088
C	0.000074	2.468165	-0.612546
S	0.000024	0.942399	-1.486809
C	0.000075	3.335257	1.814609
H	0.000074	2.909620	2.836676
H	-0.892314	3.989552	1.726239
H	0.892483	3.989525	1.726228
H	0.000094	3.417382	-1.161575
H	1.258111	-4.392713	-0.688674
H	0.946272	-4.392347	1.079084
H	0.187654	-1.440937	-1.063572
$end

$rem
JOBTYPE		SP
EXCHANGE	HF
CORRELATION	pRIMP2
BASIS		cc-pvtz
METHOD		rimp2
AUX_BASIS	rimp2-cc-pvtz
SOLVENT_METHOD	PCM
PURECART	11111
SYMMETRY	false
MEM_TOTAL	110000
SCF_CONVERGENCE = 6
THRESH=10
$end

$solvent
dielectric 4.90
$end
--------------------------------------------------------------

             Standard Nuclear Orientation (Angstroms)
    I     Atom           X                Y                Z
 ----------------------------------------------------------------
    1      C       0.7632280000    -3.8667250000     0.1353010000
    2      C      -0.6033110000    -3.7039630000    -0.1060730000
    3      C      -1.0504230000    -2.3570560000    -0.1852860000
    4      H      -1.2831880000    -4.5610920000    -0.2257830000
    5      C       0.0000000000    -1.4406640000     0.0000000000
    6      S       1.5210210000    -2.2869570000     0.2681870000
    7      C      -2.4835070000    -1.9787430000    -0.4382090000
    8      H      -3.1187980000    -2.8786780000    -0.5501530000
    9      H      -2.5933810000    -1.3760150000    -1.3639060000
   10      H      -2.9035160000    -1.3757280000     0.3937980000
   11      C       0.0000000000     0.0000000000     0.0000000000
   12      C       0.0000330000     0.8636000000     1.0994460000
   13      C       0.0000520000     2.2475080000     0.7767210000
   14      H       0.0000260000     0.4948010000     2.1360880000
   15      C       0.0000740000     2.4681650000    -0.6125460000
   16      S       0.0000240000     0.9423990000    -1.4868090000
   17      C       0.0000750000     3.3352570000     1.8146090000
   18      H       0.0000740000     2.9096200000     2.8366760000
   19      H      -0.8923140000     3.9895520000     1.7262390000
   20      H       0.8924830000     3.9895250000     1.7262280000
   21      H       0.0000940000     3.4173820000    -1.1615750000
   22      H       1.2581110000    -4.3927130000    -0.6886740000
   23      H       0.9462720000    -4.3923470000     1.0790840000
   24      H       0.1876540000    -1.4409370000    -1.0635720000
 ----------------------------------------------------------------

   10   -1180.7601566833      4.98e-07  Convergence criterion met
 Total energy in the final basis set =    -1180.7601566833
        RIMP2         total energy =     -1182.7643288238 a.u.

                    Orbital Energies (a.u.)
 --------------------------------------------------------------

 Alpha MOs
 -- Occupied --
-91.9868 -91.9415 -11.2791 -11.2651 -11.2626 -11.2553 -11.2510 -11.2406
-11.2383 -11.2313 -11.2287 -11.2188  -8.9864  -8.9461  -6.6673  -6.6668
 -6.6661  -6.6275  -6.6264  -6.6252  -1.1980  -1.1536  -1.0587  -1.0258
 -1.0035  -0.9623  -0.9132  -0.9003  -0.8127  -0.7645  -0.7387  -0.7038
 -0.6540  -0.6343  -0.6108  -0.5880  -0.5764  -0.5732  -0.5692  -0.5537
 -0.5425  -0.5299  -0.5133  -0.5053  -0.4907  -0.4823  -0.4638  -0.4478
 -0.3559  -0.3416  -0.3126  -0.2818

          Ground-State Mulliken Net Atomic Charges

     Atom                 Charge (a.u.)
  ----------------------------------------
      1 C                    -0.077798
      2 C                    -0.329761
      3 C                    -0.029426
      4 H                     0.176245
      5 C                     0.116213
      6 S                    -0.176312
      7 C                    -0.265034
      8 H                     0.112632
      9 H                     0.100947
     10 H                     0.106700
     11 C                    -0.120336
     12 C                    -0.222088
     13 C                     0.019988
     14 H                     0.185764
     15 C                    -0.245218
     16 S                     0.016392
     17 C                    -0.272308
     18 H                     0.103061
     19 H                     0.107586
     20 H                     0.108317
     21 H                     0.198683
     22 H                     0.110955
     23 H                     0.112606
     24 H                     0.162192
  ----------------------------------------
  Sum of atomic charges =     0.000000

                    Cartesian Multipole Moments
 -----------------------------------------------------------------
    Charge (ESU x 10^10)
                -0.0000
    Dipole Moment (Debye)
         X      -2.2562      Y       0.7147      Z       0.3072
       Tot       2.3866
    Quadrupole Moments (Debye-Ang)
        XX     -91.6479     XY       3.2928     YY     -73.6308
        XZ      -0.2514     YZ       2.9455     ZZ     -86.0018

 Total job time:  654.20s(wall), 652.35s(cpu)
        *  Thank you very much for using Q-Chem.  Have a nice day.  *
