 Q-Chem 5.4, Q-Chem, Inc., Pleasanton, CA (2021)
 Q-Chem 5.4.0 for Intel X86 EM64T Linux

User input:
--------------------------------------------------------------
$molecule
0 1
C	-0.265779	-3.866725	0.728138
C	0.209225	-3.703963	-0.575726
C	0.364875	-2.357056	-1.002290
H	0.445176	-4.561092	-1.224486
C	-0.000000	-1.440664	-0.000000
S	-0.528236	-2.286957	1.451343
C	0.862808	-1.978743	-2.369683
H	1.083368	-2.878678	-2.975883
H	1.793522	-1.376015	-2.317142
H	0.116375	-1.375728	-2.927787
C	0.000000	0.000000	0.000000
C	0.555137	0.661535	1.099446
C	1.444710	1.721658	0.776721
H	0.318072	0.379023	2.136088
C	1.586563	1.890676	-0.612546
S	0.605781	0.721904	-1.486809
C	2.143920	2.554907	1.814609
H	1.870325	2.228851	2.836676
H	1.880882	3.629742	1.726239
H	3.248098	2.482476	1.726228
H	2.196723	2.617806	-1.161575
H	0.459743	-4.392713	1.358585
H	-1.227009	-4.392347	0.744515
H	1.014829	-1.440937	0.369490
$end

$rem
JOBTYPE		SP
EXCHANGE	HF
CORRELATION	pRIMP2
BASIS		cc-pvtz
METHOD		rimp2
AUX_BASIS	rimp2-cc-pvtz
SOLVENT_METHOD	PCM
PURECART	11111
SYMMETRY	false
MEM_TOTAL	110000
SCF_CONVERGENCE = 6
THRESH=10
$end

$solvent
dielectric 4.90
$end
--------------------------------------------------------------

             Standard Nuclear Orientation (Angstroms)
    I     Atom           X                Y                Z
 ----------------------------------------------------------------
    1      C      -0.2657790000    -3.8667250000     0.7281380000
    2      C       0.2092250000    -3.7039630000    -0.5757260000
    3      C       0.3648750000    -2.3570560000    -1.0022900000
    4      H       0.4451760000    -4.5610920000    -1.2244860000
    5      C       0.0000000000    -1.4406640000     0.0000000000
    6      S      -0.5282360000    -2.2869570000     1.4513430000
    7      C       0.8628080000    -1.9787430000    -2.3696830000
    8      H       1.0833680000    -2.8786780000    -2.9758830000
    9      H       1.7935220000    -1.3760150000    -2.3171420000
   10      H       0.1163750000    -1.3757280000    -2.9277870000
   11      C       0.0000000000     0.0000000000     0.0000000000
   12      C       0.5551370000     0.6615350000     1.0994460000
   13      C       1.4447100000     1.7216580000     0.7767210000
   14      H       0.3180720000     0.3790230000     2.1360880000
   15      C       1.5865630000     1.8906760000    -0.6125460000
   16      S       0.6057810000     0.7219040000    -1.4868090000
   17      C       2.1439200000     2.5549070000     1.8146090000
   18      H       1.8703250000     2.2288510000     2.8366760000
   19      H       1.8808820000     3.6297420000     1.7262390000
   20      H       3.2480980000     2.4824760000     1.7262280000
   21      H       2.1967230000     2.6178060000    -1.1615750000
   22      H       0.4597430000    -4.3927130000     1.3585850000
   23      H      -1.2270090000    -4.3923470000     0.7445150000
   24      H       1.0148290000    -1.4409370000     0.3694900000
 ----------------------------------------------------------------

   10   -1180.7149719357      7.48e-07  Convergence criterion met
 Total energy in the final basis set =    -1180.7149719357
        RIMP2         total energy =     -1182.7335860047 a.u.

                    Orbital Energies (a.u.)
 --------------------------------------------------------------

 Alpha MOs
 -- Occupied --
-91.9796 -91.9417 -11.2797 -11.2632 -11.2630 -11.2579 -11.2509 -11.2416
-11.2353 -11.2290 -11.2284 -11.2187  -8.9804  -8.9465  -6.6612  -6.6605
 -6.6600  -6.6279  -6.6269  -6.6257  -1.2050  -1.1523  -1.0605  -1.0275
 -1.0070  -0.9550  -0.9134  -0.9035  -0.8086  -0.7720  -0.7219  -0.7010
 -0.6634  -0.6448  -0.6112  -0.5855  -0.5838  -0.5737  -0.5689  -0.5540
 -0.5419  -0.5322  -0.5171  -0.5152  -0.4909  -0.4681  -0.4527  -0.4422
 -0.3555  -0.3392  -0.3250  -0.2609

          Ground-State Mulliken Net Atomic Charges

     Atom                 Charge (a.u.)
  ----------------------------------------
      1 C                    -0.072807
      2 C                    -0.324063
      3 C                    -0.044590
      4 H                     0.177966
      5 C                     0.073672
      6 S                    -0.197224
      7 C                    -0.287100
      8 H                     0.111895
      9 H                     0.112882
     10 H                     0.109887
     11 C                    -0.038386
     12 C                    -0.254132
     13 C                     0.025037
     14 H                     0.182322
     15 C                    -0.257117
     16 S                     0.021430
     17 C                    -0.269092
     18 H                     0.103110
     19 H                     0.108259
     20 H                     0.105951
     21 H                     0.197921
     22 H                     0.109932
     23 H                     0.112490
     24 H                     0.191758
  ----------------------------------------
  Sum of atomic charges =     0.000000

                    Cartesian Multipole Moments
 -----------------------------------------------------------------
    Charge (ESU x 10^10)
                -0.0000
    Dipole Moment (Debye)
         X       2.8691      Y      -0.0687      Z      -0.8142
       Tot       2.9831
    Quadrupole Moments (Debye-Ang)
        XX     -87.4919     XY       2.6252     YY     -78.8603
        XZ       0.6683     YZ       3.4261     ZZ     -85.1872

 Total job time:  679.05s(wall), 674.87s(cpu)
        *  Thank you very much for using Q-Chem.  Have a nice day.  *
