 Q-Chem 5.4, Q-Chem, Inc., Pleasanton, CA (2021)
 Q-Chem 5.4.0 for Intel X86 EM64T Linux

User input:
--------------------------------------------------------------
$molecule
0 1
C	-0.135301	-3.866725	0.763228
C	0.106073	-3.703963	-0.603311
C	0.185286	-2.357056	-1.050423
H	0.225783	-4.561092	-1.283188
C	-0.000000	-1.440664	-0.000000
S	-0.268187	-2.286957	1.521021
C	0.438209	-1.978743	-2.483507
H	0.550153	-2.878678	-3.118798
H	1.363906	-1.376015	-2.593381
H	-0.393798	-1.375728	-2.903516
C	0.000000	0.000000	0.000000
C	0.431829	0.747884	1.099446
C	1.123799	1.946373	0.776721
H	0.247423	0.428497	2.136088
C	1.234147	2.137457	-0.612546
S	0.471221	0.816130	-1.486809
C	1.667694	2.888380	1.814609
H	1.454874	2.519768	2.836676
H	1.222009	3.901210	1.726239
H	2.767675	3.008788	1.726228
H	1.708773	2.959493	-1.161575
H	0.688674	-4.392713	1.258111
H	-1.079084	-4.392347	0.946272
H	1.063572	-1.440937	0.187654
$end

$rem
JOBTYPE		SP
EXCHANGE	HF
CORRELATION	pRIMP2
BASIS		cc-pvtz
METHOD		rimp2
AUX_BASIS	rimp2-cc-pvtz
SOLVENT_METHOD	PCM
PURECART	11111
SYMMETRY	false
MEM_TOTAL	110000
SCF_CONVERGENCE = 6
THRESH=10
$end

$solvent
dielectric 4.90
$end
--------------------------------------------------------------

             Standard Nuclear Orientation (Angstroms)
    I     Atom           X                Y                Z
 ----------------------------------------------------------------
    1      C      -0.1353010000    -3.8667250000     0.7632280000
    2      C       0.1060730000    -3.7039630000    -0.6033110000
    3      C       0.1852860000    -2.3570560000    -1.0504230000
    4      H       0.2257830000    -4.5610920000    -1.2831880000
    5      C       0.0000000000    -1.4406640000     0.0000000000
    6      S      -0.2681870000    -2.2869570000     1.5210210000
    7      C       0.4382090000    -1.9787430000    -2.4835070000
    8      H       0.5501530000    -2.8786780000    -3.1187980000
    9      H       1.3639060000    -1.3760150000    -2.5933810000
   10      H      -0.3937980000    -1.3757280000    -2.9035160000
   11      C       0.0000000000     0.0000000000     0.0000000000
   12      C       0.4318290000     0.7478840000     1.0994460000
   13      C       1.1237990000     1.9463730000     0.7767210000
   14      H       0.2474230000     0.4284970000     2.1360880000
   15      C       1.2341470000     2.1374570000    -0.6125460000
   16      S       0.4712210000     0.8161300000    -1.4868090000
   17      C       1.6676940000     2.8883800000     1.8146090000
   18      H       1.4548740000     2.5197680000     2.8366760000
   19      H       1.2220090000     3.9012100000     1.7262390000
   20      H       2.7676750000     3.0087880000     1.7262280000
   21      H       1.7087730000     2.9594930000    -1.1615750000
   22      H       0.6886740000    -4.3927130000     1.2581110000
   23      H      -1.0790840000    -4.3923470000     0.9462720000
   24      H       1.0635720000    -1.4409370000     0.1876540000
 ----------------------------------------------------------------

   10   -1180.7379555697      5.16e-07  Convergence criterion met
 Total energy in the final basis set =    -1180.7379555697
        RIMP2         total energy =     -1182.7499048076 a.u.

                    Orbital Energies (a.u.)
 --------------------------------------------------------------

 Alpha MOs
 -- Occupied --
-91.9798 -91.9445 -11.2861 -11.2642 -11.2611 -11.2572 -11.2503 -11.2432
-11.2319 -11.2308 -11.2278 -11.2212  -8.9803  -8.9492  -6.6612  -6.6606
 -6.6599  -6.6306  -6.6296  -6.6283  -1.2042  -1.1523  -1.0609  -1.0281
 -1.0066  -0.9553  -0.9151  -0.9025  -0.8115  -0.7725  -0.7184  -0.7024
 -0.6628  -0.6473  -0.6115  -0.5884  -0.5832  -0.5722  -0.5687  -0.5538
 -0.5421  -0.5336  -0.5167  -0.5127  -0.4904  -0.4755  -0.4556  -0.4433
 -0.3576  -0.3407  -0.3266  -0.2627

          Ground-State Mulliken Net Atomic Charges

     Atom                 Charge (a.u.)
  ----------------------------------------
      1 C                    -0.074511
      2 C                    -0.317628
      3 C                    -0.049160
      4 H                     0.178450
      5 C                     0.095088
      6 S                    -0.192552
      7 C                    -0.301884
      8 H                     0.116726
      9 H                     0.113331
     10 H                     0.113148
     11 C                    -0.000985
     12 C                    -0.305074
     13 C                     0.045057
     14 H                     0.178521
     15 C                    -0.275207
     16 S                     0.011829
     17 C                    -0.269964
     18 H                     0.102916
     19 H                     0.108661
     20 H                     0.107205
     21 H                     0.196842
     22 H                     0.111207
     23 H                     0.113231
     24 H                     0.194753
  ----------------------------------------
  Sum of atomic charges =     0.000000

                    Cartesian Multipole Moments
 -----------------------------------------------------------------
    Charge (ESU x 10^10)
                -0.0000
    Dipole Moment (Debye)
         X       2.0798      Y      -0.3657      Z      -0.9597
       Tot       2.3196
    Quadrupole Moments (Debye-Ang)
        XX     -89.2343     XY       2.2954     YY     -76.2602
        XZ       0.6917     YZ       4.0639     ZZ     -85.3984

 Total job time:  664.34s(wall), 660.72s(cpu)
        *  Thank you very much for using Q-Chem.  Have a nice day.  *
