 Q-Chem 5.4, Q-Chem, Inc., Pleasanton, CA (2021)
 Q-Chem 5.4.0 for Intel X86 EM64T Linux

User input:
--------------------------------------------------------------
$molecule
0 1
C	0.000713	-3.866725	-0.775127
C	0.000302	-3.703963	0.612565
C	-0.000067	-2.357056	1.066639
H	0.000470	-4.561092	1.302900
C	0.000000	-1.440664	0.000000
S	-0.000009	-2.286957	-1.544483
C	-0.000295	-1.978743	2.521872
H	-0.000221	-2.878678	3.166949
H	-0.892850	-1.376015	2.790821
H	0.892005	-1.375728	2.791023
C	0.000000	0.000000	0.000000
C	0.661577	0.555087	1.099446
C	1.721724	1.444630	0.776721
H	0.379056	0.318032	2.136088
C	1.890772	1.586449	-0.612546
S	0.721935	0.605744	-1.486809
C	2.555004	2.143805	1.814609
H	2.228946	1.870211	2.836676
H	2.482605	3.247987	1.726239
H	3.629830	1.880735	1.726228
H	2.617927	2.196579	-1.161575
H	-0.896681	-4.392713	-1.119411
H	0.898372	-4.392347	-1.119277
H	1.080000	-1.440391	0.000115
$end

$rem
JOBTYPE		SP
EXCHANGE	HF
CORRELATION	pRIMP2
BASIS		cc-pvtz
METHOD		rimp2
AUX_BASIS	rimp2-cc-pvtz
SOLVENT_METHOD	PCM
PURECART	11111
SYMMETRY	false
MEM_TOTAL	110000
SCF_CONVERGENCE = 6
THRESH=10
$end

$solvent
dielectric 4.90
$end
--------------------------------------------------------------

             Standard Nuclear Orientation (Angstroms)
    I     Atom           X                Y                Z
 ----------------------------------------------------------------
    1      C       0.0007130000    -3.8667250000    -0.7751270000
    2      C       0.0003020000    -3.7039630000     0.6125650000
    3      C      -0.0000670000    -2.3570560000     1.0666390000
    4      H       0.0004700000    -4.5610920000     1.3029000000
    5      C       0.0000000000    -1.4406640000     0.0000000000
    6      S      -0.0000090000    -2.2869570000    -1.5444830000
    7      C      -0.0002950000    -1.9787430000     2.5218720000
    8      H      -0.0002210000    -2.8786780000     3.1669490000
    9      H      -0.8928500000    -1.3760150000     2.7908210000
   10      H       0.8920050000    -1.3757280000     2.7910230000
   11      C       0.0000000000     0.0000000000     0.0000000000
   12      C       0.6615770000     0.5550870000     1.0994460000
   13      C       1.7217240000     1.4446300000     0.7767210000
   14      H       0.3790560000     0.3180320000     2.1360880000
   15      C       1.8907720000     1.5864490000    -0.6125460000
   16      S       0.7219350000     0.6057440000    -1.4868090000
   17      C       2.5550040000     2.1438050000     1.8146090000
   18      H       2.2289460000     1.8702110000     2.8366760000
   19      H       2.4826050000     3.2479870000     1.7262390000
   20      H       3.6298300000     1.8807350000     1.7262280000
   21      H       2.6179270000     2.1965790000    -1.1615750000
   22      H      -0.8966810000    -4.3927130000    -1.1194110000
   23      H       0.8983720000    -4.3923470000    -1.1192770000
   24      H       1.0800000000    -1.4403910000     0.0001150000
 ----------------------------------------------------------------

   11   -1180.7008065931      4.78e-07  Convergence criterion met
 Total energy in the final basis set =    -1180.7008065931
        RIMP2         total energy =     -1182.7233003298 a.u.

                    Orbital Energies (a.u.)
 --------------------------------------------------------------

 Alpha MOs
 -- Occupied --
-91.9808 -91.9383 -11.2739 -11.2709 -11.2620 -11.2585 -11.2519 -11.2401
-11.2374 -11.2329 -11.2298 -11.2207  -8.9815  -8.9434  -6.6623  -6.6616
 -6.6612  -6.6247  -6.6237  -6.6225  -1.2083  -1.1529  -1.0607  -1.0335
 -0.9979  -0.9634  -0.9143  -0.9012  -0.8129  -0.7618  -0.7313  -0.7071
 -0.6587  -0.6469  -0.6117  -0.5957  -0.5853  -0.5711  -0.5584  -0.5530
 -0.5445  -0.5370  -0.5254  -0.5049  -0.4816  -0.4780  -0.4582  -0.4347
 -0.3625  -0.3410  -0.3219  -0.2591

          Ground-State Mulliken Net Atomic Charges

     Atom                 Charge (a.u.)
  ----------------------------------------
      1 C                    -0.081868
      2 C                    -0.304269
      3 C                    -0.066354
      4 H                     0.176317
      5 C                     0.107222
      6 S                    -0.190373
      7 C                    -0.289697
      8 H                     0.117900
      9 H                     0.111355
     10 H                     0.100087
     11 C                    -0.064431
     12 C                    -0.251650
     13 C                     0.026325
     14 H                     0.190418
     15 C                    -0.243631
     16 S                     0.025427
     17 C                    -0.269881
     18 H                     0.101548
     19 H                     0.109809
     20 H                     0.106448
     21 H                     0.199529
     22 H                     0.111832
     23 H                     0.109830
     24 H                     0.168106
  ----------------------------------------
  Sum of atomic charges =     0.000000

                    Cartesian Multipole Moments
 -----------------------------------------------------------------
    Charge (ESU x 10^10)
                -0.0000
    Dipole Moment (Debye)
         X       2.4885      Y      -0.1357      Z       3.8488
       Tot       4.5852
    Quadrupole Moments (Debye-Ang)
        XX     -85.2117     XY       4.1106     YY     -79.8174
        XZ       0.2577     YZ      -3.1052     ZZ     -85.4403

 Total job time:  755.50s(wall), 749.65s(cpu)
        *  Thank you very much for using Q-Chem.  Have a nice day.  *
