 Q-Chem 5.4, Q-Chem, Inc., Pleasanton, CA (2021)
 Q-Chem 5.4.0 for Intel X86 EM64T Linux

User input:
--------------------------------------------------------------
$molecule
0 1
C	-0.593324	-3.866725	-0.498788
C	0.469446	-3.703963	0.393517
C	0.817050	-2.357056	0.685674
H	0.998381	-4.561092	0.837128
C	0.000000	-1.440664	0.000000
S	-1.183149	-2.286957	-0.992768
C	1.931676	-1.978743	1.621254
H	2.425882	-2.878678	2.035845
H	1.563980	-1.376015	2.477868
H	2.711417	-1.375728	1.110719
C	0.000000	0.000000	0.000000
C	0.295399	0.811508	1.099446
C	0.768742	2.111949	0.776721
H	0.169256	0.464952	2.136088
C	0.844232	2.319291	-0.612546
S	0.322342	0.885558	-1.486809
C	1.140796	3.134091	1.814609
H	0.995218	2.734123	2.836676
H	0.526006	4.054142	1.726239
H	2.203157	3.443680	1.726228
H	1.168902	3.211257	-1.161575
H	-1.433894	-4.392713	-0.032646
H	-0.279954	-4.392347	-1.407651
H	-0.694299	-1.440937	0.827254
$end

$rem
JOBTYPE		SP
EXCHANGE	HF
CORRELATION	pRIMP2
BASIS		cc-pvtz
METHOD		rimp2
AUX_BASIS	rimp2-cc-pvtz
SOLVENT_METHOD	PCM
PURECART	11111
SYMMETRY	false
MEM_TOTAL	110000
SCF_CONVERGENCE = 6
THRESH=10
$end

$solvent
dielectric 4.90
$end
--------------------------------------------------------------

             Standard Nuclear Orientation (Angstroms)
    I     Atom           X                Y                Z
 ----------------------------------------------------------------
    1      C      -0.5933240000    -3.8667250000    -0.4987880000
    2      C       0.4694460000    -3.7039630000     0.3935170000
    3      C       0.8170500000    -2.3570560000     0.6856740000
    4      H       0.9983810000    -4.5610920000     0.8371280000
    5      C       0.0000000000    -1.4406640000     0.0000000000
    6      S      -1.1831490000    -2.2869570000    -0.9927680000
    7      C       1.9316760000    -1.9787430000     1.6212540000
    8      H       2.4258820000    -2.8786780000     2.0358450000
    9      H       1.5639800000    -1.3760150000     2.4778680000
   10      H       2.7114170000    -1.3757280000     1.1107190000
   11      C       0.0000000000     0.0000000000     0.0000000000
   12      C       0.2953990000     0.8115080000     1.0994460000
   13      C       0.7687420000     2.1119490000     0.7767210000
   14      H       0.1692560000     0.4649520000     2.1360880000
   15      C       0.8442320000     2.3192910000    -0.6125460000
   16      S       0.3223420000     0.8855580000    -1.4868090000
   17      C       1.1407960000     3.1340910000     1.8146090000
   18      H       0.9952180000     2.7341230000     2.8366760000
   19      H       0.5260060000     4.0541420000     1.7262390000
   20      H       2.2031570000     3.4436800000     1.7262280000
   21      H       1.1689020000     3.2112570000    -1.1615750000
   22      H      -1.4338940000    -4.3927130000    -0.0326460000
   23      H      -0.2799540000    -4.3923470000    -1.4076510000
   24      H      -0.6942990000    -1.4409370000     0.8272540000
 ----------------------------------------------------------------

   10   -1180.7537723711      5.31e-07  Convergence criterion met
 Total energy in the final basis set =    -1180.7537723711
        RIMP2         total energy =     -1182.7619879968 a.u.

                    Orbital Energies (a.u.)
 --------------------------------------------------------------

 Alpha MOs
 -- Occupied --
-91.9805 -91.9420 -11.2808 -11.2640 -11.2638 -11.2566 -11.2513 -11.2417
-11.2414 -11.2317 -11.2295 -11.2201  -8.9804  -8.9467  -6.6613  -6.6607
 -6.6602  -6.6281  -6.6271  -6.6258  -1.1994  -1.1535  -1.0587  -1.0278
 -1.0034  -0.9619  -0.9125  -0.9009  -0.8157  -0.7609  -0.7319  -0.7065
 -0.6584  -0.6435  -0.6109  -0.5909  -0.5845  -0.5711  -0.5609  -0.5540
 -0.5417  -0.5315  -0.5186  -0.5070  -0.4851  -0.4778  -0.4625  -0.4465
 -0.3556  -0.3422  -0.3194  -0.2731

          Ground-State Mulliken Net Atomic Charges

     Atom                 Charge (a.u.)
  ----------------------------------------
      1 C                    -0.074208
      2 C                    -0.322185
      3 C                    -0.049095
      4 H                     0.177425
      5 C                     0.096303
      6 S                    -0.176813
      7 C                    -0.273617
      8 H                     0.118123
      9 H                     0.096629
     10 H                     0.113890
     11 C                    -0.055400
     12 C                    -0.286582
     13 C                     0.036998
     14 H                     0.191963
     15 C                    -0.245499
     16 S                     0.008883
     17 C                    -0.271911
     18 H                     0.101544
     19 H                     0.108869
     20 H                     0.108271
     21 H                     0.196690
     22 H                     0.110672
     23 H                     0.110818
     24 H                     0.178233
  ----------------------------------------
  Sum of atomic charges =     0.000000

                    Cartesian Multipole Moments
 -----------------------------------------------------------------
    Charge (ESU x 10^10)
                -0.0000
    Dipole Moment (Debye)
         X       1.9737      Y       0.3283      Z       3.7152
       Tot       4.2197
    Quadrupole Moments (Debye-Ang)
        XX     -90.1585     XY       1.7151     YY     -74.7216
        XZ       0.4292     YZ      -2.3027     ZZ     -86.3439

 Total job time:  659.05s(wall), 652.65s(cpu)
        *  Thank you very much for using Q-Chem.  Have a nice day.  *
