 Q-Chem 5.4, Q-Chem, Inc., Pleasanton, CA (2021)
 Q-Chem 5.4.0 for Intel X86 EM64T Linux

User input:
--------------------------------------------------------------
$molecule
0 1
C	-0.763475	-3.866725	0.133897
C	0.603206	-3.703963	-0.106669
C	1.050446	-2.357056	-0.185154
H	1.283024	-4.561092	-0.226709
C	0.000000	-1.440664	0.000000
S	-1.521018	-2.286957	0.268206
C	2.483610	-1.978743	-0.437628
H	3.118875	-2.878678	-0.549717
H	2.903464	-1.376015	0.394664
H	2.593726	-1.375728	-1.363110
C	0.000000	0.000000	0.000000
C	0.747916	0.431772	1.099446
C	1.946425	1.123709	0.776721
H	0.428523	0.247378	2.136088
C	2.137531	1.234018	-0.612546
S	0.816154	0.471179	-1.486809
C	2.888455	1.667564	1.814609
H	2.519842	1.454746	2.836676
H	3.008896	2.767543	1.726239
H	3.901271	1.221850	1.726228
H	2.959587	1.708609	-1.161575
H	-0.946698	-4.392713	1.077442
H	-1.258274	-4.392347	-0.690363
H	0.187427	-1.440937	1.063612
$end

$rem
JOBTYPE		SP
EXCHANGE	HF
CORRELATION	pRIMP2
BASIS		cc-pvtz
METHOD		rimp2
AUX_BASIS	rimp2-cc-pvtz
SOLVENT_METHOD	PCM
PURECART	11111
SYMMETRY	false
MEM_TOTAL	110000
SCF_CONVERGENCE = 6
THRESH=10
$end

$solvent
dielectric 4.90
$end
--------------------------------------------------------------

             Standard Nuclear Orientation (Angstroms)
    I     Atom           X                Y                Z
 ----------------------------------------------------------------
    1      C      -0.7634750000    -3.8667250000     0.1338970000
    2      C       0.6032060000    -3.7039630000    -0.1066690000
    3      C       1.0504460000    -2.3570560000    -0.1851540000
    4      H       1.2830240000    -4.5610920000    -0.2267090000
    5      C       0.0000000000    -1.4406640000     0.0000000000
    6      S      -1.5210180000    -2.2869570000     0.2682060000
    7      C       2.4836100000    -1.9787430000    -0.4376280000
    8      H       3.1188750000    -2.8786780000    -0.5497170000
    9      H       2.9034640000    -1.3760150000     0.3946640000
   10      H       2.5937260000    -1.3757280000    -1.3631100000
   11      C       0.0000000000     0.0000000000     0.0000000000
   12      C       0.7479160000     0.4317720000     1.0994460000
   13      C       1.9464250000     1.1237090000     0.7767210000
   14      H       0.4285230000     0.2473780000     2.1360880000
   15      C       2.1375310000     1.2340180000    -0.6125460000
   16      S       0.8161540000     0.4711790000    -1.4868090000
   17      C       2.8884550000     1.6675640000     1.8146090000
   18      H       2.5198420000     1.4547460000     2.8366760000
   19      H       3.0088960000     2.7675430000     1.7262390000
   20      H       3.9012710000     1.2218500000     1.7262280000
   21      H       2.9595870000     1.7086090000    -1.1615750000
   22      H      -0.9466980000    -4.3927130000     1.0774420000
   23      H      -1.2582740000    -4.3923470000    -0.6903630000
   24      H       0.1874270000    -1.4409370000     1.0636120000
 ----------------------------------------------------------------

   11   -1180.6726383792      5.15e-07  Convergence criterion met
 Total energy in the final basis set =    -1180.6726383792
        RIMP2         total energy =     -1182.7006911636 a.u.

                    Orbital Energies (a.u.)
 --------------------------------------------------------------

 Alpha MOs
 -- Occupied --
-91.9793 -91.9290 -11.2884 -11.2648 -11.2577 -11.2532 -11.2519 -11.2475
-11.2343 -11.2325 -11.2243 -11.2137  -8.9802  -8.9341  -6.6610  -6.6602
 -6.6599  -6.6155  -6.6145  -6.6132  -1.2085  -1.1532  -1.0600  -1.0209
 -1.0119  -0.9596  -0.9103  -0.9016  -0.8064  -0.7625  -0.7480  -0.7000
 -0.6579  -0.6358  -0.6132  -0.5929  -0.5838  -0.5755  -0.5636  -0.5531
 -0.5422  -0.5250  -0.5229  -0.5029  -0.4919  -0.4623  -0.4475  -0.4348
 -0.3491  -0.3448  -0.3176  -0.2660

          Ground-State Mulliken Net Atomic Charges

     Atom                 Charge (a.u.)
  ----------------------------------------
      1 C                    -0.072520
      2 C                    -0.334108
      3 C                    -0.026686
      4 H                     0.173879
      5 C                     0.094056
      6 S                    -0.228304
      7 C                    -0.316835
      8 H                     0.123291
      9 H                     0.112271
     10 H                     0.119431
     11 C                    -0.157045
     12 C                    -0.144648
     13 C                    -0.016749
     14 H                     0.189554
     15 C                    -0.154690
     16 S                     0.008630
     17 C                    -0.268778
     18 H                     0.104059
     19 H                     0.114045
     20 H                     0.104192
     21 H                     0.200685
     22 H                     0.104532
     23 H                     0.106207
     24 H                     0.165529
  ----------------------------------------
  Sum of atomic charges =     0.000000

                    Cartesian Multipole Moments
 -----------------------------------------------------------------
    Charge (ESU x 10^10)
                -0.0000
    Dipole Moment (Debye)
         X       5.5190      Y       1.0033      Z       1.9935
       Tot       5.9532
    Quadrupole Moments (Debye-Ang)
        XX     -82.9593     XY       1.3167     YY     -84.5952
        XZ       0.2770     YZ       0.0895     ZZ     -84.9896

 Total job time:  795.45s(wall), 792.55s(cpu)
        *  Thank you very much for using Q-Chem.  Have a nice day.  *
