 Q-Chem 5.4, Q-Chem, Inc., Pleasanton, CA (2021)
 Q-Chem 5.4.0 for Intel X86 EM64T Linux

User input:
--------------------------------------------------------------
$molecule
0 1
C	0.671636	-3.866725	-0.386946
C	-0.530345	-3.703963	0.306544
C	-0.923770	-2.357056	0.533261
H	-1.128109	-4.561092	0.651857
C	-0.000000	-1.440664	-0.000000
S	1.337557	-2.286957	-0.772250
C	-2.184153	-1.978743	1.260680
H	-2.742769	-2.878678	1.583283
H	-2.863347	-1.376015	0.622180
H	-1.971094	-1.375728	2.168011
C	0.000000	0.000000	0.000000
C	0.149995	0.850475	1.099446
C	0.390327	2.213354	0.776721
H	0.085947	0.487279	2.136088
C	0.428665	2.430655	-0.612546
S	0.163670	0.928078	-1.486809
C	0.579235	3.284574	1.814609
H	0.505323	2.865404	2.836676
H	-0.185980	4.083890	1.726239
H	1.571698	3.773937	1.726228
H	0.593515	3.365448	-1.161575
H	0.521098	-4.392713	-1.336254
H	1.418509	-4.392347	0.218374
H	-0.539900	-1.440937	-0.935365
$end

$rem
JOBTYPE		SP
EXCHANGE	HF
CORRELATION	pRIMP2
BASIS		cc-pvtz
METHOD		rimp2
AUX_BASIS	rimp2-cc-pvtz
SOLVENT_METHOD	PCM
PURECART	11111
SYMMETRY	false
MEM_TOTAL	110000
SCF_CONVERGENCE = 6
THRESH=10
$end

$solvent
dielectric 4.90
$end
--------------------------------------------------------------

   10   -1180.7580867675      5.16e-07  Convergence criterion met
 Total energy in the final basis set =    -1180.7580867675
        RIMP2         total energy =     -1182.7626049817 a.u.
 Total job time:  642.35s(wall), 638.15s(cpu)
        *  Thank you very much for using Q-Chem.  Have a nice day.  *
 Q-Chem 5.4, Q-Chem, Inc., Pleasanton, CA (2021)
 Q-Chem 5.4.0 for Intel X86 EM64T Linux

User input:
--------------------------------------------------------------
$molecule
0 1
C	0.671636	-3.866725	-0.386946
C	-0.530345	-3.703963	0.306544
C	-0.923770	-2.357056	0.533261
H	-1.128109	-4.561092	0.651857
C	-0.000000	-1.440664	-0.000000
S	1.337557	-2.286957	-0.772250
C	-2.184153	-1.978743	1.260680
H	-2.742769	-2.878678	1.583283
H	-2.863347	-1.376015	0.622180
H	-1.971094	-1.375728	2.168011
C	0.000000	0.000000	0.000000
C	0.149995	0.850475	1.099446
C	0.390327	2.213354	0.776721
H	0.085947	0.487279	2.136088
C	0.428665	2.430655	-0.612546
S	0.163670	0.928078	-1.486809
C	0.579235	3.284574	1.814609
H	0.505323	2.865404	2.836676
H	-0.185980	4.083890	1.726239
H	1.571698	3.773937	1.726228
H	0.593515	3.365448	-1.161575
H	0.521098	-4.392713	-1.336254
H	1.418509	-4.392347	0.218374
H	-0.539900	-1.440937	-0.935365
$end

$rem
JOBTYPE		SP
EXCHANGE	HF
CORRELATION	pRIMP2
BASIS		cc-pvtz
METHOD		rimp2
AUX_BASIS	rimp2-cc-pvtz
SOLVENT_METHOD	PCM
PURECART	11111
SYMMETRY	false
MEM_TOTAL	110000
SCF_CONVERGENCE = 6
THRESH=10
$end

$solvent
dielectric 4.90
$end
--------------------------------------------------------------

             Standard Nuclear Orientation (Angstroms)
    I     Atom           X                Y                Z
 ----------------------------------------------------------------
    1      C       0.6716360000    -3.8667250000    -0.3869460000
    2      C      -0.5303450000    -3.7039630000     0.3065440000
    3      C      -0.9237700000    -2.3570560000     0.5332610000
    4      H      -1.1281090000    -4.5610920000     0.6518570000
    5      C       0.0000000000    -1.4406640000     0.0000000000
    6      S       1.3375570000    -2.2869570000    -0.7722500000
    7      C      -2.1841530000    -1.9787430000     1.2606800000
    8      H      -2.7427690000    -2.8786780000     1.5832830000
    9      H      -2.8633470000    -1.3760150000     0.6221800000
   10      H      -1.9710940000    -1.3757280000     2.1680110000
   11      C       0.0000000000     0.0000000000     0.0000000000
   12      C       0.1499950000     0.8504750000     1.0994460000
   13      C       0.3903270000     2.2133540000     0.7767210000
   14      H       0.0859470000     0.4872790000     2.1360880000
   15      C       0.4286650000     2.4306550000    -0.6125460000
   16      S       0.1636700000     0.9280780000    -1.4868090000
   17      C       0.5792350000     3.2845740000     1.8146090000
   18      H       0.5053230000     2.8654040000     2.8366760000
   19      H      -0.1859800000     4.0838900000     1.7262390000
   20      H       1.5716980000     3.7739370000     1.7262280000
   21      H       0.5935150000     3.3654480000    -1.1615750000
   22      H       0.5210980000    -4.3927130000    -1.3362540000
   23      H       1.4185090000    -4.3923470000     0.2183740000
   24      H      -0.5399000000    -1.4409370000    -0.9353650000
 ----------------------------------------------------------------

   10   -1180.7580867675      5.16e-07  Convergence criterion met
 Total energy in the final basis set =    -1180.7580867675
        RIMP2         total energy =     -1182.7626049817 a.u.

                    Orbital Energies (a.u.)
 --------------------------------------------------------------

 Alpha MOs
 -- Occupied --
-91.9853 -91.9419 -11.2803 -11.2638 -11.2635 -11.2557 -11.2505 -11.2412
-11.2374 -11.2320 -11.2286 -11.2196  -8.9850  -8.9466  -6.6659  -6.6654
 -6.6648  -6.6280  -6.6269  -6.6256  -1.1987  -1.1534  -1.0586  -1.0280
 -1.0014  -0.9632  -0.9128  -0.9003  -0.8146  -0.7600  -0.7425  -0.7026
 -0.6540  -0.6360  -0.6105  -0.5887  -0.5793  -0.5700  -0.5672  -0.5544
 -0.5436  -0.5310  -0.5137  -0.5058  -0.4907  -0.4811  -0.4639  -0.4492
 -0.3564  -0.3412  -0.3173  -0.2754

          Ground-State Mulliken Net Atomic Charges

     Atom                 Charge (a.u.)
  ----------------------------------------
      1 C                    -0.076856
      2 C                    -0.327541
      3 C                    -0.025238
      4 H                     0.176668
      5 C                     0.108074
      6 S                    -0.174452
      7 C                    -0.268459
      8 H                     0.113647
      9 H                     0.104341
     10 H                     0.103515
     11 C                    -0.116621
     12 C                    -0.224312
     13 C                     0.016146
     14 H                     0.189977
     15 C                    -0.240654
     16 S                     0.011336
     17 C                    -0.273267
     18 H                     0.102103
     19 H                     0.107556
     20 H                     0.108711
     21 H                     0.197973
     22 H                     0.110662
     23 H                     0.113984
     24 H                     0.162709
  ----------------------------------------
  Sum of atomic charges =     0.000000

                    Cartesian Multipole Moments
 -----------------------------------------------------------------
    Charge (ESU x 10^10)
                -0.0000
    Dipole Moment (Debye)
         X      -2.1569      Y       0.5147      Z       1.9766
       Tot       2.9705
    Quadrupole Moments (Debye-Ang)
        XX     -91.6622     XY       5.6340     YY     -73.7727
        XZ      -0.0573     YZ       0.3574     ZZ     -85.6635

 Total job time:  640.82s(wall), 636.87s(cpu)
        *  Thank you very much for using Q-Chem.  Have a nice day.  *
