 Q-Chem 5.4, Q-Chem, Inc., Pleasanton, CA (2021)
 Q-Chem 5.4.0 for Intel X86 EM64T Linux

User input:
--------------------------------------------------------------
$molecule
0 1
C	-0.135301	-3.866725	0.763228
C	0.106073	-3.703963	-0.603311
C	0.185286	-2.357056	-1.050423
H	0.225783	-4.561092	-1.283188
C	0.000000	-1.440664	0.000000
S	-0.268187	-2.286957	1.521021
C	0.438209	-1.978743	-2.483507
H	0.550153	-2.878678	-3.118798
H	1.363906	-1.376015	-2.593381
H	-0.393798	-1.375728	-2.903516
C	0.000000	0.000000	0.000000
C	0.223548	0.834165	1.099446
C	0.581748	2.170912	0.776721
H	0.128089	0.477934	2.136088
C	0.638880	2.384045	-0.612546
S	0.243934	0.910282	-1.486809
C	0.863301	3.221592	1.814609
H	0.753137	2.810458	2.836676
H	0.170663	4.084559	1.726239
H	1.894637	3.622593	1.726228
H	0.884575	3.300913	-1.161575
H	0.688674	-4.392713	1.258111
H	-1.079084	-4.392347	0.946272
H	-1.063572	-1.440391	-0.187654
$end

$rem
JOBTYPE		SP
EXCHANGE	HF
CORRELATION	pRIMP2
BASIS		cc-pvtz
METHOD		rimp2
AUX_BASIS	rimp2-cc-pvtz
SOLVENT_METHOD	PCM
PURECART	11111
SYMMETRY	false
MEM_TOTAL	110000
SCF_CONVERGENCE = 6
THRESH=10
$end

$solvent
dielectric 4.90
$end
--------------------------------------------------------------

             Standard Nuclear Orientation (Angstroms)
    I     Atom           X                Y                Z
 ----------------------------------------------------------------
    1      C      -0.1353010000    -3.8667250000     0.7632280000
    2      C       0.1060730000    -3.7039630000    -0.6033110000
    3      C       0.1852860000    -2.3570560000    -1.0504230000
    4      H       0.2257830000    -4.5610920000    -1.2831880000
    5      C       0.0000000000    -1.4406640000     0.0000000000
    6      S      -0.2681870000    -2.2869570000     1.5210210000
    7      C       0.4382090000    -1.9787430000    -2.4835070000
    8      H       0.5501530000    -2.8786780000    -3.1187980000
    9      H       1.3639060000    -1.3760150000    -2.5933810000
   10      H      -0.3937980000    -1.3757280000    -2.9035160000
   11      C       0.0000000000     0.0000000000     0.0000000000
   12      C       0.2235480000     0.8341650000     1.0994460000
   13      C       0.5817480000     2.1709120000     0.7767210000
   14      H       0.1280890000     0.4779340000     2.1360880000
   15      C       0.6388800000     2.3840450000    -0.6125460000
   16      S       0.2439340000     0.9102820000    -1.4868090000
   17      C       0.8633010000     3.2215920000     1.8146090000
   18      H       0.7531370000     2.8104580000     2.8366760000
   19      H       0.1706630000     4.0845590000     1.7262390000
   20      H       1.8946370000     3.6225930000     1.7262280000
   21      H       0.8845750000     3.3009130000    -1.1615750000
   22      H       0.6886740000    -4.3927130000     1.2581110000
   23      H      -1.0790840000    -4.3923470000     0.9462720000
   24      H      -1.0635720000    -1.4403910000    -0.1876540000
 ----------------------------------------------------------------

   10   -1180.7505068919      5.06e-07  Convergence criterion met
 Total energy in the final basis set =    -1180.7505068919
        RIMP2         total energy =     -1182.7583523709 a.u.

                    Orbital Energies (a.u.)
 --------------------------------------------------------------

 Alpha MOs
 -- Occupied --
-91.9808 -91.9463 -11.2878 -11.2665 -11.2606 -11.2551 -11.2496 -11.2440
-11.2324 -11.2320 -11.2273 -11.2221  -8.9810  -8.9508  -6.6619  -6.6614
 -6.6607  -6.6322  -6.6312  -6.6299  -1.2023  -1.1523  -1.0608  -1.0282
 -1.0065  -0.9570  -0.9162  -0.9017  -0.8144  -0.7723  -0.7182  -0.7057
 -0.6575  -0.6477  -0.6107  -0.5934  -0.5822  -0.5717  -0.5680  -0.5531
 -0.5417  -0.5340  -0.5164  -0.5111  -0.4882  -0.4817  -0.4577  -0.4448
 -0.3587  -0.3413  -0.3264  -0.2641

          Ground-State Mulliken Net Atomic Charges

     Atom                 Charge (a.u.)
  ----------------------------------------
      1 C                    -0.072634
      2 C                    -0.321667
      3 C                    -0.053671
      4 H                     0.179237
      5 C                     0.146466
      6 S                    -0.186789
      7 C                    -0.306627
      8 H                     0.120916
      9 H                     0.118966
     10 H                     0.107222
     11 C                    -0.043809
     12 C                    -0.294137
     13 C                     0.041343
     14 H                     0.180530
     15 C                    -0.272932
     16 S                     0.004471
     17 C                    -0.271610
     18 H                     0.102581
     19 H                     0.108208
     20 H                     0.108149
     21 H                     0.196816
     22 H                     0.112776
     23 H                     0.112627
     24 H                     0.183567
  ----------------------------------------
  Sum of atomic charges =     0.000000

                    Cartesian Multipole Moments
 -----------------------------------------------------------------
    Charge (ESU x 10^10)
                -0.0000
    Dipole Moment (Debye)
         X      -0.0337      Y      -0.3528      Z      -1.2117
       Tot       1.2624
    Quadrupole Moments (Debye-Ang)
        XX     -91.0041     XY       3.3250     YY     -73.9216
        XZ      -0.1662     YZ       4.8151     ZZ     -85.5958

 Total job time:  661.88s(wall), 655.90s(cpu)
        *  Thank you very much for using Q-Chem.  Have a nice day.  *
