 Q-Chem 5.4, Q-Chem, Inc., Pleasanton, CA (2021)
 Q-Chem 5.4.0 for Intel X86 EM64T Linux

User input:
--------------------------------------------------------------
$molecule
0 1
C	-0.763475	-3.866725	0.133897
C	0.603206	-3.703963	-0.106669
C	1.050446	-2.357056	-0.185154
H	1.283024	-4.561092	-0.226709
C	-0.000000	-1.440664	-0.000000
S	-1.521018	-2.286957	0.268206
C	2.483610	-1.978743	-0.437628
H	3.118875	-2.878678	-0.549717
H	2.903464	-1.376015	0.394664
H	2.593726	-1.375728	-1.363110
C	0.000000	0.000000	0.000000
C	0.365003	0.782674	1.099446
C	0.949885	2.036912	0.776721
H	0.209135	0.448431	2.136088
C	1.043159	2.236886	-0.612546
S	0.398297	0.854094	-1.486809
C	1.409609	3.022738	1.814609
H	1.229726	2.636980	2.836676
H	0.877346	3.992870	1.726239
H	2.494910	3.238558	1.726228
H	1.444334	3.097160	-1.161575
H	-0.946698	-4.392713	1.077442
H	-1.258274	-4.392347	-0.690363
H	0.187427	-1.440937	1.063612
$end

$rem
JOBTYPE		SP
EXCHANGE	HF
CORRELATION	pRIMP2
BASIS		cc-pvtz
METHOD		rimp2
AUX_BASIS	rimp2-cc-pvtz
SOLVENT_METHOD	PCM
PURECART	11111
SYMMETRY	false
MEM_TOTAL	110000
SCF_CONVERGENCE = 6
THRESH=10
$end

$solvent
dielectric 4.90
$end
--------------------------------------------------------------

             Standard Nuclear Orientation (Angstroms)
    I     Atom           X                Y                Z
 ----------------------------------------------------------------
    1      C      -0.7634750000    -3.8667250000     0.1338970000
    2      C       0.6032060000    -3.7039630000    -0.1066690000
    3      C       1.0504460000    -2.3570560000    -0.1851540000
    4      H       1.2830240000    -4.5610920000    -0.2267090000
    5      C       0.0000000000    -1.4406640000     0.0000000000
    6      S      -1.5210180000    -2.2869570000     0.2682060000
    7      C       2.4836100000    -1.9787430000    -0.4376280000
    8      H       3.1188750000    -2.8786780000    -0.5497170000
    9      H       2.9034640000    -1.3760150000     0.3946640000
   10      H       2.5937260000    -1.3757280000    -1.3631100000
   11      C       0.0000000000     0.0000000000     0.0000000000
   12      C       0.3650030000     0.7826740000     1.0994460000
   13      C       0.9498850000     2.0369120000     0.7767210000
   14      H       0.2091350000     0.4484310000     2.1360880000
   15      C       1.0431590000     2.2368860000    -0.6125460000
   16      S       0.3982970000     0.8540940000    -1.4868090000
   17      C       1.4096090000     3.0227380000     1.8146090000
   18      H       1.2297260000     2.6369800000     2.8366760000
   19      H       0.8773460000     3.9928700000     1.7262390000
   20      H       2.4949100000     3.2385580000     1.7262280000
   21      H       1.4443340000     3.0971600000    -1.1615750000
   22      H      -0.9466980000    -4.3927130000     1.0774420000
   23      H      -1.2582740000    -4.3923470000    -0.6903630000
   24      H       0.1874270000    -1.4409370000     1.0636120000
 ----------------------------------------------------------------

   10   -1180.7499002521      5.61e-07  Convergence criterion met
 Total energy in the final basis set =    -1180.7499002521
        RIMP2         total energy =     -1182.7584987488 a.u.

                    Orbital Energies (a.u.)
 --------------------------------------------------------------

 Alpha MOs
 -- Occupied --
-91.9810 -91.9377 -11.2771 -11.2687 -11.2625 -11.2536 -11.2517 -11.2467
-11.2392 -11.2303 -11.2300 -11.2186  -8.9810  -8.9426  -6.6619  -6.6613
 -6.6608  -6.6240  -6.6229  -6.6217  -1.1987  -1.1540  -1.0582  -1.0241
 -1.0072  -0.9600  -0.9111  -0.9018  -0.8125  -0.7624  -0.7371  -0.7017
 -0.6603  -0.6398  -0.6105  -0.5889  -0.5795  -0.5729  -0.5666  -0.5509
 -0.5417  -0.5287  -0.5176  -0.5044  -0.4933  -0.4741  -0.4595  -0.4464
 -0.3539  -0.3432  -0.3139  -0.2779

          Ground-State Mulliken Net Atomic Charges

     Atom                 Charge (a.u.)
  ----------------------------------------
      1 C                    -0.076647
      2 C                    -0.327467
      3 C                    -0.020013
      4 H                     0.176093
      5 C                     0.067256
      6 S                    -0.186747
      7 C                    -0.269820
      8 H                     0.114894
      9 H                     0.103362
     10 H                     0.108786
     11 C                    -0.060407
     12 C                    -0.252736
     13 C                     0.031515
     14 H                     0.182001
     15 C                    -0.232765
     16 S                     0.006369
     17 C                    -0.270514
     18 H                     0.102427
     19 H                     0.108506
     20 H                     0.107545
     21 H                     0.197417
     22 H                     0.109284
     23 H                     0.110475
     24 H                     0.171187
  ----------------------------------------
  Sum of atomic charges =     0.000000

                    Cartesian Multipole Moments
 -----------------------------------------------------------------
    Charge (ESU x 10^10)
                -0.0000
    Dipole Moment (Debye)
         X       3.4730      Y       0.7501      Z       1.8685
       Tot       4.0144
    Quadrupole Moments (Debye-Ang)
        XX     -90.1053     XY       0.2070     YY     -75.9952
        XZ       0.1326     YZ       0.3335     ZZ     -85.7730

 Total job time:  673.63s(wall), 669.62s(cpu)
        *  Thank you very much for using Q-Chem.  Have a nice day.  *
