 Q-Chem 5.4, Q-Chem, Inc., Pleasanton, CA (2021)
 Q-Chem 5.4.0 for Intel X86 EM64T Linux

User input:
--------------------------------------------------------------
$molecule
0 1
C	-0.763228	-3.866725	-0.135301
C	0.603311	-3.703963	0.106073
C	1.050423	-2.357056	0.185286
H	1.283188	-4.561092	0.225783
C	0.000000	-1.440664	0.000000
S	-1.521021	-2.286957	-0.268187
C	2.483507	-1.978743	0.438209
H	3.118798	-2.878678	0.550153
H	2.593381	-1.376015	1.363906
H	2.903516	-1.375728	-0.393798
C	0.000000	0.000000	0.000000
C	0.223548	0.834165	1.099446
C	0.581748	2.170912	0.776721
H	0.128089	0.477934	2.136088
C	0.638880	2.384045	-0.612546
S	0.243934	0.910282	-1.486809
C	0.863301	3.221592	1.814609
H	0.753137	2.810458	2.836676
H	0.170663	4.084559	1.726239
H	1.894637	3.622593	1.726228
H	0.884575	3.300913	-1.161575
H	-1.258111	-4.392713	0.688674
H	-0.946272	-4.392347	-1.079084
H	-0.187654	-1.440937	1.063572
$end

$rem
JOBTYPE		SP
EXCHANGE	HF
CORRELATION	pRIMP2
BASIS		cc-pvtz
METHOD		rimp2
AUX_BASIS	rimp2-cc-pvtz
SOLVENT_METHOD	PCM
PURECART	11111
SYMMETRY	false
MEM_TOTAL	110000
SCF_CONVERGENCE = 6
THRESH=10
$end

$solvent
dielectric 4.90
$end
--------------------------------------------------------------

             Standard Nuclear Orientation (Angstroms)
    I     Atom           X                Y                Z
 ----------------------------------------------------------------
    1      C      -0.7632280000    -3.8667250000    -0.1353010000
    2      C       0.6033110000    -3.7039630000     0.1060730000
    3      C       1.0504230000    -2.3570560000     0.1852860000
    4      H       1.2831880000    -4.5610920000     0.2257830000
    5      C       0.0000000000    -1.4406640000     0.0000000000
    6      S      -1.5210210000    -2.2869570000    -0.2681870000
    7      C       2.4835070000    -1.9787430000     0.4382090000
    8      H       3.1187980000    -2.8786780000     0.5501530000
    9      H       2.5933810000    -1.3760150000     1.3639060000
   10      H       2.9035160000    -1.3757280000    -0.3937980000
   11      C       0.0000000000     0.0000000000     0.0000000000
   12      C       0.2235480000     0.8341650000     1.0994460000
   13      C       0.5817480000     2.1709120000     0.7767210000
   14      H       0.1280890000     0.4779340000     2.1360880000
   15      C       0.6388800000     2.3840450000    -0.6125460000
   16      S       0.2439340000     0.9102820000    -1.4868090000
   17      C       0.8633010000     3.2215920000     1.8146090000
   18      H       0.7531370000     2.8104580000     2.8366760000
   19      H       0.1706630000     4.0845590000     1.7262390000
   20      H       1.8946370000     3.6225930000     1.7262280000
   21      H       0.8845750000     3.3009130000    -1.1615750000
   22      H      -1.2581110000    -4.3927130000     0.6886740000
   23      H      -0.9462720000    -4.3923470000    -1.0790840000
   24      H      -0.1876540000    -1.4409370000     1.0635720000
 ----------------------------------------------------------------

   10   -1180.7603068892      5.16e-07  Convergence criterion met
 Total energy in the final basis set =    -1180.7603068892
        RIMP2         total energy =     -1182.7661465093 a.u.

                    Orbital Energies (a.u.)
 --------------------------------------------------------------

 Alpha MOs
 -- Occupied --
-91.9802 -91.9399 -11.2796 -11.2667 -11.2629 -11.2552 -11.2512 -11.2455
-11.2403 -11.2313 -11.2298 -11.2194  -8.9802  -8.9447  -6.6612  -6.6606
 -6.6601  -6.6261  -6.6250  -6.6238  -1.1981  -1.1540  -1.0581  -1.0256
 -1.0057  -0.9609  -0.9116  -0.9014  -0.8147  -0.7608  -0.7363  -0.7035
 -0.6603  -0.6409  -0.6107  -0.5897  -0.5805  -0.5719  -0.5653  -0.5513
 -0.5417  -0.5292  -0.5163  -0.5058  -0.4911  -0.4784  -0.4602  -0.4474
 -0.3551  -0.3418  -0.3131  -0.2816

          Ground-State Mulliken Net Atomic Charges

     Atom                 Charge (a.u.)
  ----------------------------------------
      1 C                    -0.078052
      2 C                    -0.328016
      3 C                    -0.013674
      4 H                     0.176200
      5 C                     0.071572
      6 S                    -0.178058
      7 C                    -0.266941
      8 H                     0.114445
      9 H                     0.100434
     10 H                     0.109463
     11 C                    -0.069165
     12 C                    -0.253913
     13 C                     0.026458
     14 H                     0.183465
     15 C                    -0.235611
     16 S                     0.004159
     17 C                    -0.271351
     18 H                     0.102028
     19 H                     0.108690
     20 H                     0.108045
     21 H                     0.197410
     22 H                     0.110780
     23 H                     0.111554
     24 H                     0.170075
  ----------------------------------------
  Sum of atomic charges =     0.000000

                    Cartesian Multipole Moments
 -----------------------------------------------------------------
    Charge (ESU x 10^10)
                -0.0000
    Dipole Moment (Debye)
         X       2.7894      Y       0.6480      Z       2.7359
       Tot       3.9606
    Quadrupole Moments (Debye-Ang)
        XX     -90.9744     XY      -0.6469     YY     -74.3380
        XZ      -0.0057     YZ      -0.9250     ZZ     -86.1691

 Total job time:  658.88s(wall), 652.11s(cpu)
        *  Thank you very much for using Q-Chem.  Have a nice day.  *
