 Q-Chem 5.4, Q-Chem, Inc., Pleasanton, CA (2021)
 Q-Chem 5.4.0 for Intel X86 EM64T Linux

User input:
--------------------------------------------------------------
$molecule
0 1
C	-0.498788	-3.866725	0.593324
C	0.393517	-3.703963	-0.469446
C	0.685674	-2.357056	-0.817050
H	0.837128	-4.561092	-0.998381
C	0.000000	-1.440664	0.000000
S	-0.992768	-2.286957	1.183149
C	1.621254	-1.978743	-1.931676
H	2.035845	-2.878678	-2.425882
H	2.477868	-1.376015	-1.563980
H	1.110719	-1.375728	-2.711417
C	0.000000	0.000000	0.000000
C	0.661577	0.555087	1.099446
C	1.721724	1.444630	0.776721
H	0.379056	0.318032	2.136088
C	1.890772	1.586449	-0.612546
S	0.721935	0.605744	-1.486809
C	2.555004	2.143805	1.814609
H	2.228946	1.870211	2.836676
H	2.482605	3.247987	1.726239
H	3.629830	1.880735	1.726228
H	2.617927	2.196579	-1.161575
H	-0.032646	-4.392713	1.433894
H	-1.407651	-4.392347	0.279954
H	-0.827254	-1.440391	-0.694299
$end

$rem
JOBTYPE		SP
EXCHANGE	HF
CORRELATION	pRIMP2
BASIS		cc-pvtz
METHOD		rimp2
AUX_BASIS	rimp2-cc-pvtz
SOLVENT_METHOD	PCM
PURECART	11111
SYMMETRY	false
MEM_TOTAL	110000
SCF_CONVERGENCE = 6
THRESH=10
$end

$solvent
dielectric 4.90
$end
--------------------------------------------------------------

             Standard Nuclear Orientation (Angstroms)
    I     Atom           X                Y                Z
 ----------------------------------------------------------------
    1      C      -0.4987880000    -3.8667250000     0.5933240000
    2      C       0.3935170000    -3.7039630000    -0.4694460000
    3      C       0.6856740000    -2.3570560000    -0.8170500000
    4      H       0.8371280000    -4.5610920000    -0.9983810000
    5      C       0.0000000000    -1.4406640000     0.0000000000
    6      S      -0.9927680000    -2.2869570000     1.1831490000
    7      C       1.6212540000    -1.9787430000    -1.9316760000
    8      H       2.0358450000    -2.8786780000    -2.4258820000
    9      H       2.4778680000    -1.3760150000    -1.5639800000
   10      H       1.1107190000    -1.3757280000    -2.7114170000
   11      C       0.0000000000     0.0000000000     0.0000000000
   12      C       0.6615770000     0.5550870000     1.0994460000
   13      C       1.7217240000     1.4446300000     0.7767210000
   14      H       0.3790560000     0.3180320000     2.1360880000
   15      C       1.8907720000     1.5864490000    -0.6125460000
   16      S       0.7219350000     0.6057440000    -1.4868090000
   17      C       2.5550040000     2.1438050000     1.8146090000
   18      H       2.2289460000     1.8702110000     2.8366760000
   19      H       2.4826050000     3.2479870000     1.7262390000
   20      H       3.6298300000     1.8807350000     1.7262280000
   21      H       2.6179270000     2.1965790000    -1.1615750000
   22      H      -0.0326460000    -4.3927130000     1.4338940000
   23      H      -1.4076510000    -4.3923470000     0.2799540000
   24      H      -0.8272540000    -1.4403910000    -0.6942990000
 ----------------------------------------------------------------

   10   -1180.6851104454      9.49e-07  Convergence criterion met
 Total energy in the final basis set =    -1180.6851104454
        RIMP2         total energy =     -1182.7099914810 a.u.

                    Orbital Energies (a.u.)
 --------------------------------------------------------------

 Alpha MOs
 -- Occupied --
-91.9787 -91.9383 -11.2786 -11.2611 -11.2591 -11.2510 -11.2503 -11.2477
-11.2384 -11.2291 -11.2259 -11.2144  -8.9802  -8.9428  -6.6608  -6.6601
 -6.6598  -6.6242  -6.6233  -6.6220  -1.2018  -1.1530  -1.0591  -1.0240
 -1.0058  -0.9602  -0.9106  -0.9042  -0.8047  -0.7713  -0.7285  -0.7093
 -0.6504  -0.6347  -0.6128  -0.5938  -0.5819  -0.5729  -0.5689  -0.5503
 -0.5414  -0.5264  -0.5192  -0.5153  -0.4886  -0.4565  -0.4512  -0.4394
 -0.3523  -0.3359  -0.3209  -0.2643

          Ground-State Mulliken Net Atomic Charges

     Atom                 Charge (a.u.)
  ----------------------------------------
      1 C                    -0.066559
      2 C                    -0.339736
      3 C                    -0.045947
      4 H                     0.176074
      5 C                     0.058111
      6 S                    -0.201942
      7 C                    -0.268503
      8 H                     0.107797
      9 H                     0.113015
     10 H                     0.106295
     11 C                    -0.140115
     12 C                    -0.142407
     13 C                    -0.004942
     14 H                     0.190489
     15 C                    -0.205471
     16 S                     0.021443
     17 C                    -0.268746
     18 H                     0.103141
     19 H                     0.107069
     20 H                     0.104924
     21 H                     0.200821
     22 H                     0.109372
     23 H                     0.106743
     24 H                     0.179077
  ----------------------------------------
  Sum of atomic charges =     0.000000

                    Cartesian Multipole Moments
 -----------------------------------------------------------------
    Charge (ESU x 10^10)
                -0.0000
    Dipole Moment (Debye)
         X       3.1652      Y       0.7527      Z      -1.0968
       Tot       3.4334
    Quadrupole Moments (Debye-Ang)
        XX     -84.6404     XY       4.6986     YY     -81.9233
        XZ       0.1373     YZ       4.0588     ZZ     -85.4655

 Total job time:  693.14s(wall), 688.86s(cpu)
        *  Thank you very much for using Q-Chem.  Have a nice day.  *
