 Q-Chem 5.4, Q-Chem, Inc., Pleasanton, CA (2021)
 Q-Chem 5.4.0 for Intel X86 EM64T Linux

User input:
--------------------------------------------------------------
$molecule
0 1
C	0.728625	-3.866725	-0.264439
C	-0.575519	-3.703963	0.209794
C	-1.002336	-2.357056	0.364749
H	-1.224165	-4.561092	0.446060
C	-0.000000	-1.440664	-0.000000
S	1.451336	-2.286957	-0.528253
C	-2.369885	-1.978743	0.862253
H	-2.976034	-2.878678	1.082953
H	-2.927887	-1.376015	0.115513
H	-2.317620	-1.375728	1.792797
C	0.000000	0.000000	0.000000
C	0.555137	0.661535	1.099446
C	1.444710	1.721658	0.776721
H	0.318072	0.379023	2.136088
C	1.586563	1.890676	-0.612546
S	0.605781	0.721904	-1.486809
C	2.143920	2.554907	1.814609
H	1.870325	2.228851	2.836676
H	1.880882	3.629742	1.726239
H	3.248098	2.482476	1.726228
H	2.196723	2.617806	-1.161575
H	0.745219	-4.392713	-1.225465
H	1.359038	-4.392347	0.461378
H	-0.369273	-1.440937	-1.014907
$end

$rem
JOBTYPE		SP
EXCHANGE	HF
CORRELATION	pRIMP2
BASIS		cc-pvtz
METHOD		rimp2
AUX_BASIS	rimp2-cc-pvtz
SOLVENT_METHOD	PCM
PURECART	11111
SYMMETRY	false
MEM_TOTAL	110000
SCF_CONVERGENCE = 6
THRESH=10
$end

$solvent
dielectric 4.90
$end
--------------------------------------------------------------

             Standard Nuclear Orientation (Angstroms)
    I     Atom           X                Y                Z
 ----------------------------------------------------------------
    1      C       0.7286250000    -3.8667250000    -0.2644390000
    2      C      -0.5755190000    -3.7039630000     0.2097940000
    3      C      -1.0023360000    -2.3570560000     0.3647490000
    4      H      -1.2241650000    -4.5610920000     0.4460600000
    5      C       0.0000000000    -1.4406640000     0.0000000000
    6      S       1.4513360000    -2.2869570000    -0.5282530000
    7      C      -2.3698850000    -1.9787430000     0.8622530000
    8      H      -2.9760340000    -2.8786780000     1.0829530000
    9      H      -2.9278870000    -1.3760150000     0.1155130000
   10      H      -2.3176200000    -1.3757280000     1.7927970000
   11      C       0.0000000000     0.0000000000     0.0000000000
   12      C       0.5551370000     0.6615350000     1.0994460000
   13      C       1.4447100000     1.7216580000     0.7767210000
   14      H       0.3180720000     0.3790230000     2.1360880000
   15      C       1.5865630000     1.8906760000    -0.6125460000
   16      S       0.6057810000     0.7219040000    -1.4868090000
   17      C       2.1439200000     2.5549070000     1.8146090000
   18      H       1.8703250000     2.2288510000     2.8366760000
   19      H       1.8808820000     3.6297420000     1.7262390000
   20      H       3.2480980000     2.4824760000     1.7262280000
   21      H       2.1967230000     2.6178060000    -1.1615750000
   22      H       0.7452190000    -4.3927130000    -1.2254650000
   23      H       1.3590380000    -4.3923470000     0.4613780000
   24      H      -0.3692730000    -1.4409370000    -1.0149070000
 ----------------------------------------------------------------

   10   -1180.7280527667      6.16e-07  Convergence criterion met
 Total energy in the final basis set =    -1180.7280527667
        RIMP2         total energy =     -1182.7401580192 a.u.

                    Orbital Energies (a.u.)
 --------------------------------------------------------------

 Alpha MOs
 -- Occupied --
-91.9838 -91.9368 -11.2758 -11.2646 -11.2591 -11.2512 -11.2511 -11.2465
-11.2379 -11.2305 -11.2290 -11.2148  -8.9839  -8.9417  -6.6648  -6.6642
 -6.6637  -6.6231  -6.6220  -6.6208  -1.1990  -1.1536  -1.0574  -1.0264
 -0.9999  -0.9639  -0.9101  -0.9006  -0.8112  -0.7578  -0.7457  -0.7029
 -0.6512  -0.6303  -0.6119  -0.5868  -0.5795  -0.5725  -0.5660  -0.5523
 -0.5418  -0.5312  -0.5082  -0.5066  -0.4897  -0.4718  -0.4633  -0.4465
 -0.3579  -0.3345  -0.3146  -0.2755

          Ground-State Mulliken Net Atomic Charges

     Atom                 Charge (a.u.)
  ----------------------------------------
      1 C                    -0.077464
      2 C                    -0.327471
      3 C                    -0.046583
      4 H                     0.173906
      5 C                     0.060335
      6 S                    -0.174590
      7 C                    -0.271227
      8 H                     0.112672
      9 H                     0.103539
     10 H                     0.103221
     11 C                    -0.116839
     12 C                    -0.169812
     13 C                     0.008345
     14 H                     0.186067
     15 C                    -0.207475
     16 S                     0.014609
     17 C                    -0.269570
     18 H                     0.102405
     19 H                     0.107271
     20 H                     0.107405
     21 H                     0.200235
     22 H                     0.106958
     23 H                     0.110845
     24 H                     0.163218
  ----------------------------------------
  Sum of atomic charges =     0.000000

                    Cartesian Multipole Moments
 -----------------------------------------------------------------
    Charge (ESU x 10^10)
                -0.0000
    Dipole Moment (Debye)
         X      -0.8696      Y       0.9861      Z       1.6304
       Tot       2.0945
    Quadrupole Moments (Debye-Ang)
        XX     -87.1928     XY       9.6666     YY     -79.0773
        XZ       0.1799     YZ       0.6609     ZZ     -85.3419

 Total job time:  654.39s(wall), 650.40s(cpu)
        *  Thank you very much for using Q-Chem.  Have a nice day.  *
