 Q-Chem 5.4, Q-Chem, Inc., Pleasanton, CA (2021)
 Q-Chem 5.4.0 for Intel X86 EM64T Linux

User input:
--------------------------------------------------------------
$molecule
0 1
C	-0.135301	-3.866725	0.763228
C	0.106073	-3.703963	-0.603311
C	0.185286	-2.357056	-1.050423
H	0.225783	-4.561092	-1.283188
C	-0.000000	-1.440664	-0.000000
S	-0.268187	-2.286957	1.521021
C	0.438209	-1.978743	-2.483507
H	0.550153	-2.878678	-3.118798
H	1.363906	-1.376015	-2.593381
H	-0.393798	-1.375728	-2.903516
C	0.000000	0.000000	0.000000
C	0.661577	0.555087	1.099446
C	1.721724	1.444630	0.776721
H	0.379056	0.318032	2.136088
C	1.890772	1.586449	-0.612546
S	0.721935	0.605744	-1.486809
C	2.555004	2.143805	1.814609
H	2.228946	1.870211	2.836676
H	2.482605	3.247987	1.726239
H	3.629830	1.880735	1.726228
H	2.617927	2.196579	-1.161575
H	0.688674	-4.392713	1.258111
H	-1.079084	-4.392347	0.946272
H	-1.063572	-1.440391	-0.187654
$end

$rem
JOBTYPE		SP
EXCHANGE	HF
CORRELATION	pRIMP2
BASIS		cc-pvtz
METHOD		rimp2
AUX_BASIS	rimp2-cc-pvtz
SOLVENT_METHOD	PCM
PURECART	11111
SYMMETRY	false
MEM_TOTAL	110000
SCF_CONVERGENCE = 6
THRESH=10
$end

$solvent
dielectric 4.90
$end
--------------------------------------------------------------

             Standard Nuclear Orientation (Angstroms)
    I     Atom           X                Y                Z
 ----------------------------------------------------------------
    1      C      -0.1353010000    -3.8667250000     0.7632280000
    2      C       0.1060730000    -3.7039630000    -0.6033110000
    3      C       0.1852860000    -2.3570560000    -1.0504230000
    4      H       0.2257830000    -4.5610920000    -1.2831880000
    5      C       0.0000000000    -1.4406640000     0.0000000000
    6      S      -0.2681870000    -2.2869570000     1.5210210000
    7      C       0.4382090000    -1.9787430000    -2.4835070000
    8      H       0.5501530000    -2.8786780000    -3.1187980000
    9      H       1.3639060000    -1.3760150000    -2.5933810000
   10      H      -0.3937980000    -1.3757280000    -2.9035160000
   11      C       0.0000000000     0.0000000000     0.0000000000
   12      C       0.6615770000     0.5550870000     1.0994460000
   13      C       1.7217240000     1.4446300000     0.7767210000
   14      H       0.3790560000     0.3180320000     2.1360880000
   15      C       1.8907720000     1.5864490000    -0.6125460000
   16      S       0.7219350000     0.6057440000    -1.4868090000
   17      C       2.5550040000     2.1438050000     1.8146090000
   18      H       2.2289460000     1.8702110000     2.8366760000
   19      H       2.4826050000     3.2479870000     1.7262390000
   20      H       3.6298300000     1.8807350000     1.7262280000
   21      H       2.6179270000     2.1965790000    -1.1615750000
   22      H       0.6886740000    -4.3927130000     1.2581110000
   23      H      -1.0790840000    -4.3923470000     0.9462720000
   24      H      -1.0635720000    -1.4403910000    -0.1876540000
 ----------------------------------------------------------------

   11   -1180.6815220038      5.02e-07  Convergence criterion met
 Total energy in the final basis set =    -1180.6815220038
        RIMP2         total energy =     -1182.7073116743 a.u.

                    Orbital Energies (a.u.)
 --------------------------------------------------------------

 Alpha MOs
 -- Occupied --
-91.9755 -91.9405 -11.2734 -11.2632 -11.2631 -11.2502 -11.2499 -11.2469
-11.2395 -11.2282 -11.2273 -11.2135  -8.9772  -8.9452  -6.6579  -6.6571
 -6.6566  -6.6266  -6.6256  -6.6243  -1.2024  -1.1525  -1.0588  -1.0269
 -1.0059  -0.9571  -0.9127  -0.9039  -0.8074  -0.7727  -0.7216  -0.7064
 -0.6508  -0.6436  -0.6121  -0.5936  -0.5836  -0.5736  -0.5673  -0.5489
 -0.5394  -0.5331  -0.5184  -0.5170  -0.4866  -0.4571  -0.4514  -0.4376
 -0.3547  -0.3353  -0.3263  -0.2557

          Ground-State Mulliken Net Atomic Charges

     Atom                 Charge (a.u.)
  ----------------------------------------
      1 C                    -0.071048
      2 C                    -0.346707
      3 C                    -0.039031
      4 H                     0.176520
      5 C                     0.074120
      6 S                    -0.205377
      7 C                    -0.287223
      8 H                     0.112308
      9 H                     0.118890
     10 H                     0.107143
     11 C                    -0.100908
     12 C                    -0.188829
     13 C                     0.009910
     14 H                     0.188242
     15 C                    -0.221831
     16 S                     0.021377
     17 C                    -0.269025
     18 H                     0.102840
     19 H                     0.107397
     20 H                     0.105538
     21 H                     0.198483
     22 H                     0.110269
     23 H                     0.109405
     24 H                     0.187537
  ----------------------------------------
  Sum of atomic charges =     0.000000

                    Cartesian Multipole Moments
 -----------------------------------------------------------------
    Charge (ESU x 10^10)
                -0.0000
    Dipole Moment (Debye)
         X       1.5714      Y       0.4541      Z      -1.2099
       Tot       2.0346
    Quadrupole Moments (Debye-Ang)
        XX     -84.9459     XY       6.1502     YY     -81.7939
        XZ      -0.0495     YZ       4.2133     ZZ     -85.2196

 Total job time:  738.37s(wall), 734.06s(cpu)
        *  Thank you very much for using Q-Chem.  Have a nice day.  *
