 Q-Chem 5.4, Q-Chem, Inc., Pleasanton, CA (2021)
 Q-Chem 5.4.0 for Intel X86 EM64T Linux

User input:
--------------------------------------------------------------
$molecule
0 1
C	0.594240	-3.866725	-0.497696
C	-0.469057	-3.703963	0.393981
C	-0.817136	-2.357056	0.685571
H	-0.997777	-4.561092	0.837848
C	-0.000000	-1.440664	-0.000000
S	1.183137	-2.286957	-0.992782
C	-1.932056	-1.978743	1.620802
H	-2.426166	-2.878678	2.035506
H	-2.711806	-1.376015	1.109943
H	-1.564678	-1.375728	2.477350
C	0.000000	0.000000	0.000000
C	0.431829	0.747884	1.099446
C	1.123799	1.946373	0.776721
H	0.247423	0.428497	2.136088
C	1.234147	2.137457	-0.612546
S	0.471221	0.816130	-1.486809
C	1.667694	2.888380	1.814609
H	1.454874	2.519768	2.836676
H	1.222009	3.901210	1.726239
H	2.767675	3.008788	1.726228
H	1.708773	2.959493	-1.161575
H	0.281143	-4.392713	-1.406441
H	1.434879	-4.392347	-0.031265
H	0.694122	-1.440391	0.827402
$end

$rem
JOBTYPE		SP
EXCHANGE	HF
CORRELATION	pRIMP2
BASIS		cc-pvtz
METHOD		rimp2
AUX_BASIS	rimp2-cc-pvtz
SOLVENT_METHOD	PCM
PURECART	11111
SYMMETRY	false
MEM_TOTAL	110000
SCF_CONVERGENCE = 6
THRESH=10
$end

$solvent
dielectric 4.90
$end
--------------------------------------------------------------

   10   -1180.7397717571      5.71e-07  Convergence criterion met
 Total energy in the final basis set =    -1180.7397717571
        RIMP2         total energy =     -1182.7498639965 a.u.
 Total job time:  652.83s(wall), 648.90s(cpu)
        *  Thank you very much for using Q-Chem.  Have a nice day.  *
 Q-Chem 5.4, Q-Chem, Inc., Pleasanton, CA (2021)
 Q-Chem 5.4.0 for Intel X86 EM64T Linux

User input:
--------------------------------------------------------------
$molecule
0 1
C	0.594240	-3.866725	-0.497696
C	-0.469057	-3.703963	0.393981
C	-0.817136	-2.357056	0.685571
H	-0.997777	-4.561092	0.837848
C	-0.000000	-1.440664	-0.000000
S	1.183137	-2.286957	-0.992782
C	-1.932056	-1.978743	1.620802
H	-2.426166	-2.878678	2.035506
H	-2.711806	-1.376015	1.109943
H	-1.564678	-1.375728	2.477350
C	0.000000	0.000000	0.000000
C	0.431829	0.747884	1.099446
C	1.123799	1.946373	0.776721
H	0.247423	0.428497	2.136088
C	1.234147	2.137457	-0.612546
S	0.471221	0.816130	-1.486809
C	1.667694	2.888380	1.814609
H	1.454874	2.519768	2.836676
H	1.222009	3.901210	1.726239
H	2.767675	3.008788	1.726228
H	1.708773	2.959493	-1.161575
H	0.281143	-4.392713	-1.406441
H	1.434879	-4.392347	-0.031265
H	0.694122	-1.440391	0.827402
$end

$rem
JOBTYPE		SP
EXCHANGE	HF
CORRELATION	pRIMP2
BASIS		cc-pvtz
METHOD		rimp2
AUX_BASIS	rimp2-cc-pvtz
SOLVENT_METHOD	PCM
PURECART	11111
SYMMETRY	false
MEM_TOTAL	110000
SCF_CONVERGENCE = 6
THRESH=10
$end

$solvent
dielectric 4.90
$end
--------------------------------------------------------------

             Standard Nuclear Orientation (Angstroms)
    I     Atom           X                Y                Z
 ----------------------------------------------------------------
    1      C       0.5942400000    -3.8667250000    -0.4976960000
    2      C      -0.4690570000    -3.7039630000     0.3939810000
    3      C      -0.8171360000    -2.3570560000     0.6855710000
    4      H      -0.9977770000    -4.5610920000     0.8378480000
    5      C       0.0000000000    -1.4406640000     0.0000000000
    6      S       1.1831370000    -2.2869570000    -0.9927820000
    7      C      -1.9320560000    -1.9787430000     1.6208020000
    8      H      -2.4261660000    -2.8786780000     2.0355060000
    9      H      -2.7118060000    -1.3760150000     1.1099430000
   10      H      -1.5646780000    -1.3757280000     2.4773500000
   11      C       0.0000000000     0.0000000000     0.0000000000
   12      C       0.4318290000     0.7478840000     1.0994460000
   13      C       1.1237990000     1.9463730000     0.7767210000
   14      H       0.2474230000     0.4284970000     2.1360880000
   15      C       1.2341470000     2.1374570000    -0.6125460000
   16      S       0.4712210000     0.8161300000    -1.4868090000
   17      C       1.6676940000     2.8883800000     1.8146090000
   18      H       1.4548740000     2.5197680000     2.8366760000
   19      H       1.2220090000     3.9012100000     1.7262390000
   20      H       2.7676750000     3.0087880000     1.7262280000
   21      H       1.7087730000     2.9594930000    -1.1615750000
   22      H       0.2811430000    -4.3927130000    -1.4064410000
   23      H       1.4348790000    -4.3923470000    -0.0312650000
   24      H       0.6941220000    -1.4403910000     0.8274020000
 ----------------------------------------------------------------

   10   -1180.7397717571      5.71e-07  Convergence criterion met
 Total energy in the final basis set =    -1180.7397717571
        RIMP2         total energy =     -1182.7498639965 a.u.

                    Orbital Energies (a.u.)
 --------------------------------------------------------------

 Alpha MOs
 -- Occupied --
-91.9829 -91.9424 -11.2802 -11.2631 -11.2610 -11.2536 -11.2511 -11.2396
-11.2396 -11.2322 -11.2291 -11.2169  -8.9827  -8.9469  -6.6636  -6.6630
 -6.6625  -6.6282  -6.6272  -6.6259  -1.2006  -1.1528  -1.0582  -1.0285
 -1.0023  -0.9606  -0.9111  -0.9009  -0.8155  -0.7585  -0.7324  -0.7022
 -0.6616  -0.6427  -0.6097  -0.5881  -0.5841  -0.5702  -0.5623  -0.5528
 -0.5414  -0.5317  -0.5136  -0.5066  -0.4896  -0.4773  -0.4649  -0.4440
 -0.3551  -0.3423  -0.3199  -0.2669

          Ground-State Mulliken Net Atomic Charges

     Atom                 Charge (a.u.)
  ----------------------------------------
      1 C                    -0.077605
      2 C                    -0.328733
      3 C                    -0.042724
      4 H                     0.174351
      5 C                     0.064278
      6 S                    -0.170931
      7 C                    -0.275160
      8 H                     0.114758
      9 H                     0.109544
     10 H                     0.100162
     11 C                    -0.053205
     12 C                    -0.244733
     13 C                     0.021991
     14 H                     0.186244
     15 C                    -0.239417
     16 S                     0.010556
     17 C                    -0.271092
     18 H                     0.101299
     19 H                     0.108131
     20 H                     0.107916
     21 H                     0.196688
     22 H                     0.109048
     23 H                     0.110227
     24 H                     0.188409
  ----------------------------------------
  Sum of atomic charges =     0.000000

                    Cartesian Multipole Moments
 -----------------------------------------------------------------
    Charge (ESU x 10^10)
                -0.0000
    Dipole Moment (Debye)
         X      -0.3553      Y       0.3561      Z       3.5324
       Tot       3.5681
    Quadrupole Moments (Debye-Ang)
        XX     -88.6818     XY       6.2212     YY     -77.1996
        XZ       0.5134     YZ      -2.3822     ZZ     -85.9672

 Total job time:  650.17s(wall), 645.60s(cpu)
        *  Thank you very much for using Q-Chem.  Have a nice day.  *
