 Q-Chem 5.4, Q-Chem, Inc., Pleasanton, CA (2021)
 Q-Chem 5.4.0 for Intel X86 EM64T Linux

User input:
--------------------------------------------------------------
$molecule
0 1
C	0.264439	-3.866725	0.728625
C	-0.209794	-3.703963	-0.575519
C	-0.364749	-2.357056	-1.002336
H	-0.446060	-4.561092	-1.224165
C	-0.000000	-1.440664	-0.000000
S	0.528253	-2.286957	1.451336
C	-0.862253	-1.978743	-2.369885
H	-1.082953	-2.878678	-2.976034
H	-0.115513	-1.376015	-2.927887
H	-1.792797	-1.375728	-2.317620
C	0.000000	0.000000	0.000000
C	0.555137	0.661535	1.099446
C	1.444710	1.721658	0.776721
H	0.318072	0.379023	2.136088
C	1.586563	1.890676	-0.612546
S	0.605781	0.721904	-1.486809
C	2.143920	2.554907	1.814609
H	1.870325	2.228851	2.836676
H	1.880882	3.629742	1.726239
H	3.248098	2.482476	1.726228
H	2.196723	2.617806	-1.161575
H	1.225465	-4.392713	0.745219
H	-0.461378	-4.392347	1.359038
H	1.014907	-1.440937	-0.369273
$end

$rem
JOBTYPE		SP
EXCHANGE	HF
CORRELATION	pRIMP2
BASIS		cc-pvtz
METHOD		rimp2
AUX_BASIS	rimp2-cc-pvtz
SOLVENT_METHOD	PCM
PURECART	11111
SYMMETRY	false
MEM_TOTAL	110000
SCF_CONVERGENCE = 6
THRESH=10
$end

$solvent
dielectric 4.90
$end
--------------------------------------------------------------

             Standard Nuclear Orientation (Angstroms)
    I     Atom           X                Y                Z
 ----------------------------------------------------------------
    1      C       0.2644390000    -3.8667250000     0.7286250000
    2      C      -0.2097940000    -3.7039630000    -0.5755190000
    3      C      -0.3647490000    -2.3570560000    -1.0023360000
    4      H      -0.4460600000    -4.5610920000    -1.2241650000
    5      C       0.0000000000    -1.4406640000     0.0000000000
    6      S       0.5282530000    -2.2869570000     1.4513360000
    7      C      -0.8622530000    -1.9787430000    -2.3698850000
    8      H      -1.0829530000    -2.8786780000    -2.9760340000
    9      H      -0.1155130000    -1.3760150000    -2.9278870000
   10      H      -1.7927970000    -1.3757280000    -2.3176200000
   11      C       0.0000000000     0.0000000000     0.0000000000
   12      C       0.5551370000     0.6615350000     1.0994460000
   13      C       1.4447100000     1.7216580000     0.7767210000
   14      H       0.3180720000     0.3790230000     2.1360880000
   15      C       1.5865630000     1.8906760000    -0.6125460000
   16      S       0.6057810000     0.7219040000    -1.4868090000
   17      C       2.1439200000     2.5549070000     1.8146090000
   18      H       1.8703250000     2.2288510000     2.8366760000
   19      H       1.8808820000     3.6297420000     1.7262390000
   20      H       3.2480980000     2.4824760000     1.7262280000
   21      H       2.1967230000     2.6178060000    -1.1615750000
   22      H       1.2254650000    -4.3927130000     0.7452190000
   23      H      -0.4613780000    -4.3923470000     1.3590380000
   24      H       1.0149070000    -1.4409370000    -0.3692730000
 ----------------------------------------------------------------

   10   -1180.7298047174      5.72e-07  Convergence criterion met
 Total energy in the final basis set =    -1180.7298047174
        RIMP2         total energy =     -1182.7431672325 a.u.

                    Orbital Energies (a.u.)
 --------------------------------------------------------------

 Alpha MOs
 -- Occupied --
-91.9772 -91.9437 -11.2805 -11.2651 -11.2608 -11.2588 -11.2516 -11.2413
-11.2395 -11.2316 -11.2285 -11.2209  -8.9783  -8.9482  -6.6592  -6.6586
 -6.6579  -6.6295  -6.6285  -6.6273  -1.2054  -1.1534  -1.0612  -1.0278
 -1.0057  -0.9571  -0.9152  -0.9022  -0.8108  -0.7730  -0.7218  -0.7031
 -0.6577  -0.6464  -0.6125  -0.5908  -0.5815  -0.5740  -0.5695  -0.5527
 -0.5426  -0.5355  -0.5157  -0.5116  -0.4876  -0.4734  -0.4590  -0.4412
 -0.3584  -0.3423  -0.3275  -0.2631

          Ground-State Mulliken Net Atomic Charges

     Atom                 Charge (a.u.)
  ----------------------------------------
      1 C                    -0.078403
      2 C                    -0.313649
      3 C                    -0.065683
      4 H                     0.176557
      5 C                     0.116187
      6 S                    -0.190704
      7 C                    -0.297190
      8 H                     0.117328
      9 H                     0.108273
     10 H                     0.116982
     11 C                    -0.007687
     12 C                    -0.312435
     13 C                     0.050096
     14 H                     0.182214
     15 C                    -0.253881
     16 S                    -0.001641
     17 C                    -0.268685
     18 H                     0.103322
     19 H                     0.108882
     20 H                     0.108442
     21 H                     0.197163
     22 H                     0.110957
     23 H                     0.111333
     24 H                     0.182225
  ----------------------------------------
  Sum of atomic charges =     0.000000

                    Cartesian Multipole Moments
 -----------------------------------------------------------------
    Charge (ESU x 10^10)
                -0.0000
    Dipole Moment (Debye)
         X       1.1590      Y      -0.1454      Z      -0.9718
       Tot       1.5195
    Quadrupole Moments (Debye-Ang)
        XX     -87.0496     XY       5.1814     YY     -77.5244
        XZ       1.0483     YZ       4.7956     ZZ     -85.8702

 Total job time:  663.66s(wall), 659.32s(cpu)
        *  Thank you very much for using Q-Chem.  Have a nice day.  *
