 Q-Chem 5.4, Q-Chem, Inc., Pleasanton, CA (2021)
 Q-Chem 5.4.0 for Intel X86 EM64T Linux

User input:
--------------------------------------------------------------
$molecule
0 1
C	-0.497696	-3.866725	-0.594240
C	0.393981	-3.703963	0.469057
C	0.685571	-2.357056	0.817136
H	0.837848	-4.561092	0.997777
C	0.000000	-1.440664	0.000000
S	-0.992782	-2.286957	-1.183137
C	1.620802	-1.978743	1.932056
H	2.035506	-2.878678	2.426166
H	1.109943	-1.376015	2.711806
H	2.477350	-1.375728	1.564678
C	0.000000	0.000000	0.000000
C	0.223548	0.834165	1.099446
C	0.581748	2.170912	0.776721
H	0.128089	0.477934	2.136088
C	0.638880	2.384045	-0.612546
S	0.243934	0.910282	-1.486809
C	0.863301	3.221592	1.814609
H	0.753137	2.810458	2.836676
H	0.170663	4.084559	1.726239
H	1.894637	3.622593	1.726228
H	0.884575	3.300913	-1.161575
H	-1.406441	-4.392713	-0.281143
H	-0.031265	-4.392347	-1.434879
H	-0.827402	-1.440937	0.694122
$end

$rem
JOBTYPE		SP
EXCHANGE	HF
CORRELATION	pRIMP2
BASIS		cc-pvtz
METHOD		rimp2
AUX_BASIS	rimp2-cc-pvtz
SOLVENT_METHOD	PCM
PURECART	11111
SYMMETRY	false
MEM_TOTAL	110000
SCF_CONVERGENCE = 6
THRESH=10
$end

$solvent
dielectric 4.90
$end
--------------------------------------------------------------

             Standard Nuclear Orientation (Angstroms)
    I     Atom           X                Y                Z
 ----------------------------------------------------------------
    1      C      -0.4976960000    -3.8667250000    -0.5942400000
    2      C       0.3939810000    -3.7039630000     0.4690570000
    3      C       0.6855710000    -2.3570560000     0.8171360000
    4      H       0.8378480000    -4.5610920000     0.9977770000
    5      C       0.0000000000    -1.4406640000     0.0000000000
    6      S      -0.9927820000    -2.2869570000    -1.1831370000
    7      C       1.6208020000    -1.9787430000     1.9320560000
    8      H       2.0355060000    -2.8786780000     2.4261660000
    9      H       1.1099430000    -1.3760150000     2.7118060000
   10      H       2.4773500000    -1.3757280000     1.5646780000
   11      C       0.0000000000     0.0000000000     0.0000000000
   12      C       0.2235480000     0.8341650000     1.0994460000
   13      C       0.5817480000     2.1709120000     0.7767210000
   14      H       0.1280890000     0.4779340000     2.1360880000
   15      C       0.6388800000     2.3840450000    -0.6125460000
   16      S       0.2439340000     0.9102820000    -1.4868090000
   17      C       0.8633010000     3.2215920000     1.8146090000
   18      H       0.7531370000     2.8104580000     2.8366760000
   19      H       0.1706630000     4.0845590000     1.7262390000
   20      H       1.8946370000     3.6225930000     1.7262280000
   21      H       0.8845750000     3.3009130000    -1.1615750000
   22      H      -1.4064410000    -4.3927130000    -0.2811430000
   23      H      -0.0312650000    -4.3923470000    -1.4348790000
   24      H      -0.8274020000    -1.4409370000     0.6941220000
 ----------------------------------------------------------------

   10   -1180.7551653279      5.11e-07  Convergence criterion met
 Total energy in the final basis set =    -1180.7551653279
        RIMP2         total energy =     -1182.7627174296 a.u.

                    Orbital Energies (a.u.)
 --------------------------------------------------------------

 Alpha MOs
 -- Occupied --
-91.9816 -91.9437 -11.2842 -11.2650 -11.2598 -11.2580 -11.2509 -11.2425
-11.2374 -11.2324 -11.2290 -11.2212  -8.9814  -8.9484  -6.6623  -6.6617
 -6.6612  -6.6298  -6.6288  -6.6275  -1.2003  -1.1530  -1.0592  -1.0291
 -1.0028  -0.9617  -0.9136  -0.9005  -0.8168  -0.7617  -0.7293  -0.7070
 -0.6586  -0.6453  -0.6108  -0.5916  -0.5856  -0.5704  -0.5600  -0.5541
 -0.5422  -0.5328  -0.5194  -0.5061  -0.4838  -0.4806  -0.4645  -0.4461
 -0.3569  -0.3426  -0.3213  -0.2698

          Ground-State Mulliken Net Atomic Charges

     Atom                 Charge (a.u.)
  ----------------------------------------
      1 C                    -0.074781
      2 C                    -0.320319
      3 C                    -0.057362
      4 H                     0.177823
      5 C                     0.117884
      6 S                    -0.176520
      7 C                    -0.281305
      8 H                     0.119274
      9 H                     0.096925
     10 H                     0.115207
     11 C                    -0.056703
     12 C                    -0.290858
     13 C                     0.039217
     14 H                     0.190915
     15 C                    -0.258298
     16 S                     0.012502
     17 C                    -0.272861
     18 H                     0.101234
     19 H                     0.108807
     20 H                     0.108479
     21 H                     0.195755
     22 H                     0.111843
     23 H                     0.111553
     24 H                     0.181590
  ----------------------------------------
  Sum of atomic charges =     0.000000

                    Cartesian Multipole Moments
 -----------------------------------------------------------------
    Charge (ESU x 10^10)
                -0.0000
    Dipole Moment (Debye)
         X       1.3484      Y       0.0602      Z       3.8551
       Tot       4.0845
    Quadrupole Moments (Debye-Ang)
        XX     -90.6853     XY       1.5403     YY     -74.0383
        XZ       0.4856     YZ      -2.4778     ZZ     -86.2751

 Total job time:  658.05s(wall), 653.03s(cpu)
        *  Thank you very much for using Q-Chem.  Have a nice day.  *
