 Q-Chem 5.4, Q-Chem, Inc., Pleasanton, CA (2021)
 Q-Chem 5.4.0 for Intel X86 EM64T Linux

User input:
--------------------------------------------------------------
$molecule
0 1
C	0.594240	-3.866725	-0.497696
C	-0.469057	-3.703963	0.393981
C	-0.817136	-2.357056	0.685571
H	-0.997777	-4.561092	0.837848
C	0.000000	-1.440664	0.000000
S	1.183137	-2.286957	-0.992782
C	-1.932056	-1.978743	1.620802
H	-2.426166	-2.878678	2.035506
H	-2.711806	-1.376015	1.109943
H	-1.564678	-1.375728	2.477350
C	0.000000	0.000000	0.000000
C	0.223548	0.834165	1.099446
C	0.581748	2.170912	0.776721
H	0.128089	0.477934	2.136088
C	0.638880	2.384045	-0.612546
S	0.243934	0.910282	-1.486809
C	0.863301	3.221592	1.814609
H	0.753137	2.810458	2.836676
H	0.170663	4.084559	1.726239
H	1.894637	3.622593	1.726228
H	0.884575	3.300913	-1.161575
H	0.281143	-4.392713	-1.406441
H	1.434879	-4.392347	-0.031265
H	-0.694122	-1.440937	-0.827402
$end

$rem
JOBTYPE		SP
EXCHANGE	HF
CORRELATION	pRIMP2
BASIS		cc-pvtz
METHOD		rimp2
AUX_BASIS	rimp2-cc-pvtz
SOLVENT_METHOD	PCM
PURECART	11111
SYMMETRY	false
MEM_TOTAL	110000
SCF_CONVERGENCE = 6
THRESH=10
$end

$solvent
dielectric 4.90
$end
--------------------------------------------------------------

             Standard Nuclear Orientation (Angstroms)
    I     Atom           X                Y                Z
 ----------------------------------------------------------------
    1      C       0.5942400000    -3.8667250000    -0.4976960000
    2      C      -0.4690570000    -3.7039630000     0.3939810000
    3      C      -0.8171360000    -2.3570560000     0.6855710000
    4      H      -0.9977770000    -4.5610920000     0.8378480000
    5      C       0.0000000000    -1.4406640000     0.0000000000
    6      S       1.1831370000    -2.2869570000    -0.9927820000
    7      C      -1.9320560000    -1.9787430000     1.6208020000
    8      H      -2.4261660000    -2.8786780000     2.0355060000
    9      H      -2.7118060000    -1.3760150000     1.1099430000
   10      H      -1.5646780000    -1.3757280000     2.4773500000
   11      C       0.0000000000     0.0000000000     0.0000000000
   12      C       0.2235480000     0.8341650000     1.0994460000
   13      C       0.5817480000     2.1709120000     0.7767210000
   14      H       0.1280890000     0.4779340000     2.1360880000
   15      C       0.6388800000     2.3840450000    -0.6125460000
   16      S       0.2439340000     0.9102820000    -1.4868090000
   17      C       0.8633010000     3.2215920000     1.8146090000
   18      H       0.7531370000     2.8104580000     2.8366760000
   19      H       0.1706630000     4.0845590000     1.7262390000
   20      H       1.8946370000     3.6225930000     1.7262280000
   21      H       0.8845750000     3.3009130000    -1.1615750000
   22      H       0.2811430000    -4.3927130000    -1.4064410000
   23      H       1.4348790000    -4.3923470000    -0.0312650000
   24      H      -0.6941220000    -1.4409370000    -0.8274020000
 ----------------------------------------------------------------

   10   -1180.7548193769      5.16e-07  Convergence criterion met
 Total energy in the final basis set =    -1180.7548193769
        RIMP2         total energy =     -1182.7602317580 a.u.

                    Orbital Energies (a.u.)
 --------------------------------------------------------------

 Alpha MOs
 -- Occupied --
-91.9847 -91.9426 -11.2809 -11.2638 -11.2630 -11.2560 -11.2505 -11.2414
-11.2367 -11.2324 -11.2285 -11.2200  -8.9845  -8.9473  -6.6654  -6.6649
 -6.6643  -6.6286  -6.6276  -6.6263  -1.1992  -1.1533  -1.0587  -1.0288
 -1.0009  -0.9633  -0.9129  -0.9002  -0.8154  -0.7598  -0.7412  -0.7026
 -0.6540  -0.6373  -0.6103  -0.5896  -0.5806  -0.5690  -0.5667  -0.5541
 -0.5440  -0.5319  -0.5148  -0.5056  -0.4901  -0.4801  -0.4649  -0.4484
 -0.3560  -0.3419  -0.3199  -0.2715

          Ground-State Mulliken Net Atomic Charges

     Atom                 Charge (a.u.)
  ----------------------------------------
      1 C                    -0.077294
      2 C                    -0.326167
      3 C                    -0.031868
      4 H                     0.176626
      5 C                     0.105382
      6 S                    -0.172068
      7 C                    -0.272579
      8 H                     0.114382
      9 H                     0.105373
     10 H                     0.103624
     11 C                    -0.109694
     12 C                    -0.224355
     13 C                     0.015356
     14 H                     0.191973
     15 C                    -0.238021
     16 S                     0.005675
     17 C                    -0.273672
     18 H                     0.101710
     19 H                     0.107745
     20 H                     0.108644
     21 H                     0.197741
     22 H                     0.110476
     23 H                     0.113906
     24 H                     0.167102
  ----------------------------------------
  Sum of atomic charges =     0.000000

                    Cartesian Multipole Moments
 -----------------------------------------------------------------
    Charge (ESU x 10^10)
                -0.0000
    Dipole Moment (Debye)
         X      -1.8788      Y       0.3876      Z       2.3596
       Tot       3.0410
    Quadrupole Moments (Debye-Ang)
        XX     -91.2954     XY       6.2774     YY     -74.0984
        XZ       0.0736     YZ      -0.2621     ZZ     -85.5940

 Total job time:  651.65s(wall), 644.53s(cpu)
        *  Thank you very much for using Q-Chem.  Have a nice day.  *
