 Q-Chem 5.4, Q-Chem, Inc., Pleasanton, CA (2021)
 Q-Chem 5.4.0 for Intel X86 EM64T Linux

User input:
--------------------------------------------------------------
$molecule
0 1
C	-0.135301	-3.866725	0.763228
C	0.106073	-3.703963	-0.603311
C	0.185286	-2.357056	-1.050423
H	0.225783	-4.561092	-1.283188
C	-0.000000	-1.440664	-0.000000
S	-0.268187	-2.286957	1.521021
C	0.438209	-1.978743	-2.483507
H	0.550153	-2.878678	-3.118798
H	1.363906	-1.376015	-2.593381
H	-0.393798	-1.375728	-2.903516
C	0.000000	0.000000	0.000000
C	0.075300	0.860311	1.099446
C	0.195935	2.238951	0.776721
H	0.043151	0.492916	2.136088
C	0.215188	2.458766	-0.612546
S	0.082160	0.938811	-1.486809
C	0.290762	3.322559	1.814609
H	0.253664	2.898542	2.836676
H	-0.541206	4.052140	1.726239
H	1.236797	3.896558	1.726228
H	0.297938	3.404370	-1.161575
H	0.688674	-4.392713	1.258111
H	-1.079084	-4.392347	0.946272
H	1.063572	-1.440937	0.187654
$end

$rem
JOBTYPE		SP
EXCHANGE	HF
CORRELATION	pRIMP2
BASIS		cc-pvtz
METHOD		rimp2
AUX_BASIS	rimp2-cc-pvtz
SOLVENT_METHOD	PCM
PURECART	11111
SYMMETRY	false
MEM_TOTAL	110000
SCF_CONVERGENCE = 6
THRESH=10
$end

$solvent
dielectric 4.90
$end
--------------------------------------------------------------

             Standard Nuclear Orientation (Angstroms)
    I     Atom           X                Y                Z
 ----------------------------------------------------------------
    1      C      -0.1353010000    -3.8667250000     0.7632280000
    2      C       0.1060730000    -3.7039630000    -0.6033110000
    3      C       0.1852860000    -2.3570560000    -1.0504230000
    4      H       0.2257830000    -4.5610920000    -1.2831880000
    5      C       0.0000000000    -1.4406640000     0.0000000000
    6      S      -0.2681870000    -2.2869570000     1.5210210000
    7      C       0.4382090000    -1.9787430000    -2.4835070000
    8      H       0.5501530000    -2.8786780000    -3.1187980000
    9      H       1.3639060000    -1.3760150000    -2.5933810000
   10      H      -0.3937980000    -1.3757280000    -2.9035160000
   11      C       0.0000000000     0.0000000000     0.0000000000
   12      C       0.0753000000     0.8603110000     1.0994460000
   13      C       0.1959350000     2.2389510000     0.7767210000
   14      H       0.0431510000     0.4929160000     2.1360880000
   15      C       0.2151880000     2.4587660000    -0.6125460000
   16      S       0.0821600000     0.9388110000    -1.4868090000
   17      C       0.2907620000     3.3225590000     1.8146090000
   18      H       0.2536640000     2.8985420000     2.8366760000
   19      H      -0.5412060000     4.0521400000     1.7262390000
   20      H       1.2367970000     3.8965580000     1.7262280000
   21      H       0.2979380000     3.4043700000    -1.1615750000
   22      H       0.6886740000    -4.3927130000     1.2581110000
   23      H      -1.0790840000    -4.3923470000     0.9462720000
   24      H       1.0635720000    -1.4409370000     0.1876540000
 ----------------------------------------------------------------

   10   -1180.7586525858      5.08e-07  Convergence criterion met
 Total energy in the final basis set =    -1180.7586525858
        RIMP2         total energy =     -1182.7643681510 a.u.

                    Orbital Energies (a.u.)
 --------------------------------------------------------------

 Alpha MOs
 -- Occupied --
-91.9815 -91.9469 -11.2914 -11.2663 -11.2626 -11.2522 -11.2499 -11.2445
-11.2330 -11.2296 -11.2274 -11.2234  -8.9815  -8.9514  -6.6625  -6.6619
 -6.6612  -6.6328  -6.6318  -6.6305  -1.2031  -1.1521  -1.0612  -1.0288
 -1.0070  -0.9560  -0.9166  -0.9016  -0.8152  -0.7724  -0.7174  -0.7036
 -0.6622  -0.6486  -0.6111  -0.5907  -0.5826  -0.5720  -0.5681  -0.5544
 -0.5425  -0.5342  -0.5163  -0.5093  -0.4894  -0.4848  -0.4577  -0.4461
 -0.3592  -0.3419  -0.3264  -0.2647

          Ground-State Mulliken Net Atomic Charges

     Atom                 Charge (a.u.)
  ----------------------------------------
      1 C                    -0.073840
      2 C                    -0.317341
      3 C                    -0.046420
      4 H                     0.179397
      5 C                     0.130498
      6 S                    -0.184122
      7 C                    -0.310276
      8 H                     0.121671
      9 H                     0.113911
     10 H                     0.112716
     11 C                    -0.015636
     12 C                    -0.317861
     13 C                     0.043245
     14 H                     0.176607
     15 C                    -0.281738
     16 S                     0.007618
     17 C                    -0.272302
     18 H                     0.102633
     19 H                     0.108453
     20 H                     0.108261
     21 H                     0.196097
     22 H                     0.111338
     23 H                     0.114013
     24 H                     0.193078
  ----------------------------------------
  Sum of atomic charges =     0.000000

                    Cartesian Multipole Moments
 -----------------------------------------------------------------
    Charge (ESU x 10^10)
                -0.0000
    Dipole Moment (Debye)
         X       1.4238      Y      -0.5679      Z      -0.9088
       Tot       1.7821
    Quadrupole Moments (Debye-Ang)
        XX     -91.7732     XY      -1.2168     YY     -73.1482
        XZ       0.2851     YZ       4.3816     ZZ     -85.4572

 Total job time:  659.16s(wall), 654.82s(cpu)
        *  Thank you very much for using Q-Chem.  Have a nice day.  *
