 Q-Chem 5.4, Q-Chem, Inc., Pleasanton, CA (2021)
 Q-Chem 5.4.0 for Intel X86 EM64T Linux

User input:
--------------------------------------------------------------
$molecule
0 1
C	0.593324	-3.866725	0.498788
C	-0.469446	-3.703963	-0.393517
C	-0.817050	-2.357056	-0.685674
H	-0.998381	-4.561092	-0.837128
C	-0.000000	-1.440664	-0.000000
S	1.183149	-2.286957	0.992768
C	-1.931676	-1.978743	-1.621254
H	-2.425882	-2.878678	-2.035845
H	-1.563980	-1.376015	-2.477868
H	-2.711417	-1.375728	-1.110719
C	0.000000	0.000000	0.000000
C	0.149995	0.850475	1.099446
C	0.390327	2.213354	0.776721
H	0.085947	0.487279	2.136088
C	0.428665	2.430655	-0.612546
S	0.163670	0.928078	-1.486809
C	0.579235	3.284574	1.814609
H	0.505323	2.865404	2.836676
H	-0.185980	4.083890	1.726239
H	1.571698	3.773937	1.726228
H	0.593515	3.365448	-1.161575
H	1.433894	-4.392713	0.032646
H	0.279954	-4.392347	1.407651
H	0.694299	-1.440937	-0.827254
$end

$rem
JOBTYPE		SP
EXCHANGE	HF
CORRELATION	pRIMP2
BASIS		cc-pvtz
METHOD		rimp2
AUX_BASIS	rimp2-cc-pvtz
SOLVENT_METHOD	PCM
PURECART	11111
SYMMETRY	false
MEM_TOTAL	110000
SCF_CONVERGENCE = 6
THRESH=10
$end

$solvent
dielectric 4.90
$end
--------------------------------------------------------------

   10   -1180.7593283109      4.96e-07  Convergence criterion met
 Total energy in the final basis set =    -1180.7593283109
        RIMP2         total energy =     -1182.7636234137 a.u.
 Total job time:  638.90s(wall), 636.01s(cpu)
        *  Thank you very much for using Q-Chem.  Have a nice day.  *
 Q-Chem 5.4, Q-Chem, Inc., Pleasanton, CA (2021)
 Q-Chem 5.4.0 for Intel X86 EM64T Linux

User input:
--------------------------------------------------------------
$molecule
0 1
C	0.593324	-3.866725	0.498788
C	-0.469446	-3.703963	-0.393517
C	-0.817050	-2.357056	-0.685674
H	-0.998381	-4.561092	-0.837128
C	-0.000000	-1.440664	-0.000000
S	1.183149	-2.286957	0.992768
C	-1.931676	-1.978743	-1.621254
H	-2.425882	-2.878678	-2.035845
H	-1.563980	-1.376015	-2.477868
H	-2.711417	-1.375728	-1.110719
C	0.000000	0.000000	0.000000
C	0.149995	0.850475	1.099446
C	0.390327	2.213354	0.776721
H	0.085947	0.487279	2.136088
C	0.428665	2.430655	-0.612546
S	0.163670	0.928078	-1.486809
C	0.579235	3.284574	1.814609
H	0.505323	2.865404	2.836676
H	-0.185980	4.083890	1.726239
H	1.571698	3.773937	1.726228
H	0.593515	3.365448	-1.161575
H	1.433894	-4.392713	0.032646
H	0.279954	-4.392347	1.407651
H	0.694299	-1.440937	-0.827254
$end

$rem
JOBTYPE		SP
EXCHANGE	HF
CORRELATION	pRIMP2
BASIS		cc-pvtz
METHOD		rimp2
AUX_BASIS	rimp2-cc-pvtz
SOLVENT_METHOD	PCM
PURECART	11111
SYMMETRY	false
MEM_TOTAL	110000
SCF_CONVERGENCE = 6
THRESH=10
$end

$solvent
dielectric 4.90
$end
--------------------------------------------------------------

             Standard Nuclear Orientation (Angstroms)
    I     Atom           X                Y                Z
 ----------------------------------------------------------------
    1      C       0.5933240000    -3.8667250000     0.4987880000
    2      C      -0.4694460000    -3.7039630000    -0.3935170000
    3      C      -0.8170500000    -2.3570560000    -0.6856740000
    4      H      -0.9983810000    -4.5610920000    -0.8371280000
    5      C       0.0000000000    -1.4406640000     0.0000000000
    6      S       1.1831490000    -2.2869570000     0.9927680000
    7      C      -1.9316760000    -1.9787430000    -1.6212540000
    8      H      -2.4258820000    -2.8786780000    -2.0358450000
    9      H      -1.5639800000    -1.3760150000    -2.4778680000
   10      H      -2.7114170000    -1.3757280000    -1.1107190000
   11      C       0.0000000000     0.0000000000     0.0000000000
   12      C       0.1499950000     0.8504750000     1.0994460000
   13      C       0.3903270000     2.2133540000     0.7767210000
   14      H       0.0859470000     0.4872790000     2.1360880000
   15      C       0.4286650000     2.4306550000    -0.6125460000
   16      S       0.1636700000     0.9280780000    -1.4868090000
   17      C       0.5792350000     3.2845740000     1.8146090000
   18      H       0.5053230000     2.8654040000     2.8366760000
   19      H      -0.1859800000     4.0838900000     1.7262390000
   20      H       1.5716980000     3.7739370000     1.7262280000
   21      H       0.5935150000     3.3654480000    -1.1615750000
   22      H       1.4338940000    -4.3927130000     0.0326460000
   23      H       0.2799540000    -4.3923470000     1.4076510000
   24      H       0.6942990000    -1.4409370000    -0.8272540000
 ----------------------------------------------------------------

   10   -1180.7593283109      4.96e-07  Convergence criterion met
 Total energy in the final basis set =    -1180.7593283109
        RIMP2         total energy =     -1182.7636234137 a.u.

                    Orbital Energies (a.u.)
 --------------------------------------------------------------

 Alpha MOs
 -- Occupied --
-91.9837 -91.9439 -11.2839 -11.2632 -11.2613 -11.2575 -11.2505 -11.2417
-11.2361 -11.2322 -11.2282 -11.2206  -8.9837  -8.9483  -6.6647  -6.6641
 -6.6634  -6.6297  -6.6287  -6.6274  -1.2001  -1.1532  -1.0598  -1.0265
 -1.0048  -0.9600  -0.9147  -0.9006  -0.8135  -0.7690  -0.7297  -0.7037
 -0.6554  -0.6394  -0.6108  -0.5912  -0.5771  -0.5740  -0.5690  -0.5536
 -0.5424  -0.5328  -0.5136  -0.5066  -0.4879  -0.4850  -0.4619  -0.4472
 -0.3562  -0.3432  -0.3206  -0.2727

          Ground-State Mulliken Net Atomic Charges

     Atom                 Charge (a.u.)
  ----------------------------------------
      1 C                    -0.076794
      2 C                    -0.320582
      3 C                    -0.056341
      4 H                     0.176894
      5 C                     0.133335
      6 S                    -0.176453
      7 C                    -0.273795
      8 H                     0.114967
      9 H                     0.101382
     10 H                     0.111203
     11 C                    -0.078317
     12 C                    -0.275876
     13 C                     0.037890
     14 H                     0.186875
     15 C                    -0.253701
     16 S                     0.008400
     17 C                    -0.272783
     18 H                     0.102969
     19 H                     0.108069
     20 H                     0.108612
     21 H                     0.197094
     22 H                     0.111752
     23 H                     0.111028
     24 H                     0.174169
  ----------------------------------------
  Sum of atomic charges =     0.000000

                    Cartesian Multipole Moments
 -----------------------------------------------------------------
    Charge (ESU x 10^10)
                -0.0000
    Dipole Moment (Debye)
         X      -1.0472      Y       0.2521      Z      -0.6710
       Tot       1.2690
    Quadrupole Moments (Debye-Ang)
        XX     -91.0429     XY       3.5666     YY     -73.6574
        XZ       0.3045     YZ       4.4567     ZZ     -86.1991

 Total job time:  638.74s(wall), 635.09s(cpu)
        *  Thank you very much for using Q-Chem.  Have a nice day.  *
