 Q-Chem 5.4, Q-Chem, Inc., Pleasanton, CA (2021)
 Q-Chem 5.4.0 for Intel X86 EM64T Linux

User input:
--------------------------------------------------------------
$molecule
0 1
C	0.386946	-3.866725	0.671636
C	-0.306544	-3.703963	-0.530345
C	-0.533261	-2.357056	-0.923770
H	-0.651857	-4.561092	-1.128109
C	0.000000	-1.440664	0.000000
S	0.772250	-2.286957	1.337557
C	-1.260680	-1.978743	-2.184153
H	-1.583283	-2.878678	-2.742769
H	-0.622180	-1.376015	-2.863347
H	-2.168011	-1.375728	-1.971094
C	0.000000	0.000000	0.000000
C	0.661577	0.555087	1.099446
C	1.721724	1.444630	0.776721
H	0.379056	0.318032	2.136088
C	1.890772	1.586449	-0.612546
S	0.721935	0.605744	-1.486809
C	2.555004	2.143805	1.814609
H	2.228946	1.870211	2.836676
H	2.482605	3.247987	1.726239
H	3.629830	1.880735	1.726228
H	2.617927	2.196579	-1.161575
H	1.336254	-4.392713	0.521098
H	-0.218374	-4.392347	1.418509
H	0.935365	-1.440937	-0.539900
$end

$rem
JOBTYPE		SP
EXCHANGE	HF
CORRELATION	pRIMP2
BASIS		cc-pvtz
METHOD		rimp2
AUX_BASIS	rimp2-cc-pvtz
SOLVENT_METHOD	PCM
PURECART	11111
SYMMETRY	false
MEM_TOTAL	110000
SCF_CONVERGENCE = 6
THRESH=10
$end

$solvent
dielectric 4.90
$end
--------------------------------------------------------------

             Standard Nuclear Orientation (Angstroms)
    I     Atom           X                Y                Z
 ----------------------------------------------------------------
    1      C       0.3869460000    -3.8667250000     0.6716360000
    2      C      -0.3065440000    -3.7039630000    -0.5303450000
    3      C      -0.5332610000    -2.3570560000    -0.9237700000
    4      H      -0.6518570000    -4.5610920000    -1.1281090000
    5      C       0.0000000000    -1.4406640000     0.0000000000
    6      S       0.7722500000    -2.2869570000     1.3375570000
    7      C      -1.2606800000    -1.9787430000    -2.1841530000
    8      H      -1.5832830000    -2.8786780000    -2.7427690000
    9      H      -0.6221800000    -1.3760150000    -2.8633470000
   10      H      -2.1680110000    -1.3757280000    -1.9710940000
   11      C       0.0000000000     0.0000000000     0.0000000000
   12      C       0.6615770000     0.5550870000     1.0994460000
   13      C       1.7217240000     1.4446300000     0.7767210000
   14      H       0.3790560000     0.3180320000     2.1360880000
   15      C       1.8907720000     1.5864490000    -0.6125460000
   16      S       0.7219350000     0.6057440000    -1.4868090000
   17      C       2.5550040000     2.1438050000     1.8146090000
   18      H       2.2289460000     1.8702110000     2.8366760000
   19      H       2.4826050000     3.2479870000     1.7262390000
   20      H       3.6298300000     1.8807350000     1.7262280000
   21      H       2.6179270000     2.1965790000    -1.1615750000
   22      H       1.3362540000    -4.3927130000     0.5210980000
   23      H      -0.2183740000    -4.3923470000     1.4185090000
   24      H       0.9353650000    -1.4409370000    -0.5399000000
 ----------------------------------------------------------------

   10   -1180.7080654474      7.63e-07  Convergence criterion met
 Total energy in the final basis set =    -1180.7080654474
        RIMP2         total energy =     -1182.7259383447 a.u.

                    Orbital Energies (a.u.)
 --------------------------------------------------------------

 Alpha MOs
 -- Occupied --
-91.9754 -91.9414 -11.2738 -11.2722 -11.2576 -11.2541 -11.2526 -11.2475
-11.2390 -11.2312 -11.2293 -11.2184  -8.9770  -8.9459  -6.6579  -6.6571
 -6.6566  -6.6273  -6.6262  -6.6250  -1.2075  -1.1536  -1.0613  -1.0269
 -1.0056  -0.9580  -0.9147  -0.9019  -0.8090  -0.7731  -0.7263  -0.7031
 -0.6550  -0.6435  -0.6134  -0.5902  -0.5809  -0.5754  -0.5695  -0.5519
 -0.5424  -0.5361  -0.5163  -0.5097  -0.4871  -0.4671  -0.4609  -0.4388
 -0.3577  -0.3426  -0.3276  -0.2604

          Ground-State Mulliken Net Atomic Charges

     Atom                 Charge (a.u.)
  ----------------------------------------
      1 C                    -0.083920
      2 C                    -0.314069
      3 C                    -0.074523
      4 H                     0.174963
      5 C                     0.114276
      6 S                    -0.190668
      7 C                    -0.288929
      8 H                     0.115855
      9 H                     0.107289
     10 H                     0.112600
     11 C                    -0.054090
     12 C                    -0.254205
     13 C                     0.031472
     14 H                     0.189124
     15 C                    -0.223848
     16 S                    -0.006775
     17 C                    -0.268032
     18 H                     0.103689
     19 H                     0.109339
     20 H                     0.108356
     21 H                     0.198946
     22 H                     0.109412
     23 H                     0.109530
     24 H                     0.174208
  ----------------------------------------
  Sum of atomic charges =     0.000000

                    Cartesian Multipole Moments
 -----------------------------------------------------------------
    Charge (ESU x 10^10)
                -0.0000
    Dipole Moment (Debye)
         X       1.2556      Y       0.1518      Z      -0.7288
       Tot       1.4597
    Quadrupole Moments (Debye-Ang)
        XX     -84.6138     XY       6.2997     YY     -80.1357
        XZ       1.0372     YZ       4.7261     ZZ     -85.9390

 Total job time:  674.54s(wall), 670.39s(cpu)
        *  Thank you very much for using Q-Chem.  Have a nice day.  *
