 Q-Chem 5.4, Q-Chem, Inc., Pleasanton, CA (2021)
 Q-Chem 5.4.0 for Intel X86 EM64T Linux

User input:
--------------------------------------------------------------
$molecule
0 1
C	-0.498788	-3.866725	0.593324
C	0.393517	-3.703963	-0.469446
C	0.685674	-2.357056	-0.817050
H	0.837128	-4.561092	-0.998381
C	0.000000	-1.440664	0.000000
S	-0.992768	-2.286957	1.183149
C	1.621254	-1.978743	-1.931676
H	2.035845	-2.878678	-2.425882
H	2.477868	-1.376015	-1.563980
H	1.110719	-1.375728	-2.711417
C	0.000000	0.000000	0.000000
C	0.747916	0.431772	1.099446
C	1.946425	1.123709	0.776721
H	0.428523	0.247378	2.136088
C	2.137531	1.234018	-0.612546
S	0.816154	0.471179	-1.486809
C	2.888455	1.667564	1.814609
H	2.519842	1.454746	2.836676
H	3.008896	2.767543	1.726239
H	3.901271	1.221850	1.726228
H	2.959587	1.708609	-1.161575
H	-0.032646	-4.392713	1.433894
H	-1.407651	-4.392347	0.279954
H	0.827254	-1.440937	0.694299
$end

$rem
JOBTYPE		SP
EXCHANGE	HF
CORRELATION	pRIMP2
BASIS		cc-pvtz
METHOD		rimp2
AUX_BASIS	rimp2-cc-pvtz
SOLVENT_METHOD	PCM
PURECART	11111
SYMMETRY	false
MEM_TOTAL	110000
SCF_CONVERGENCE = 6
THRESH=10
$end

$solvent
dielectric 4.90
$end
--------------------------------------------------------------

             Standard Nuclear Orientation (Angstroms)
    I     Atom           X                Y                Z
 ----------------------------------------------------------------
    1      C      -0.4987880000    -3.8667250000     0.5933240000
    2      C       0.3935170000    -3.7039630000    -0.4694460000
    3      C       0.6856740000    -2.3570560000    -0.8170500000
    4      H       0.8371280000    -4.5610920000    -0.9983810000
    5      C       0.0000000000    -1.4406640000     0.0000000000
    6      S      -0.9927680000    -2.2869570000     1.1831490000
    7      C       1.6212540000    -1.9787430000    -1.9316760000
    8      H       2.0358450000    -2.8786780000    -2.4258820000
    9      H       2.4778680000    -1.3760150000    -1.5639800000
   10      H       1.1107190000    -1.3757280000    -2.7114170000
   11      C       0.0000000000     0.0000000000     0.0000000000
   12      C       0.7479160000     0.4317720000     1.0994460000
   13      C       1.9464250000     1.1237090000     0.7767210000
   14      H       0.4285230000     0.2473780000     2.1360880000
   15      C       2.1375310000     1.2340180000    -0.6125460000
   16      S       0.8161540000     0.4711790000    -1.4868090000
   17      C       2.8884550000     1.6675640000     1.8146090000
   18      H       2.5198420000     1.4547460000     2.8366760000
   19      H       3.0088960000     2.7675430000     1.7262390000
   20      H       3.9012710000     1.2218500000     1.7262280000
   21      H       2.9595870000     1.7086090000    -1.1615750000
   22      H      -0.0326460000    -4.3927130000     1.4338940000
   23      H      -1.4076510000    -4.3923470000     0.2799540000
   24      H       0.8272540000    -1.4409370000     0.6942990000
 ----------------------------------------------------------------

   11   -1180.6401701676      7.94e-07  Convergence criterion met
 Total energy in the final basis set =    -1180.6401701676
        RIMP2         total energy =     -1182.6775015918 a.u.

                    Orbital Energies (a.u.)
 --------------------------------------------------------------

 Alpha MOs
 -- Occupied --
-91.9811 -91.9337 -11.2825 -11.2608 -11.2569 -11.2530 -11.2505 -11.2493
-11.2372 -11.2307 -11.2253 -11.2131  -8.9828  -8.9388  -6.6632  -6.6626
 -6.6623  -6.6202  -6.6192  -6.6180  -1.2117  -1.1521  -1.0608  -1.0302
 -1.0086  -0.9549  -0.9101  -0.9069  -0.8026  -0.7714  -0.7356  -0.6999
 -0.6646  -0.6391  -0.6105  -0.5901  -0.5823  -0.5782  -0.5676  -0.5597
 -0.5428  -0.5278  -0.5203  -0.5169  -0.4925  -0.4536  -0.4428  -0.4355
 -0.3506  -0.3361  -0.3207  -0.2555

          Ground-State Mulliken Net Atomic Charges

     Atom                 Charge (a.u.)
  ----------------------------------------
      1 C                    -0.068311
      2 C                    -0.344827
      3 C                    -0.045097
      4 H                     0.175745
      5 C                     0.077150
      6 S                    -0.218866
      7 C                    -0.261964
      8 H                     0.104829
      9 H                     0.104233
     10 H                     0.112288
     11 C                    -0.147331
     12 C                    -0.149780
     13 C                    -0.013996
     14 H                     0.194291
     15 C                    -0.220415
     16 S                     0.057494
     17 C                    -0.266845
     18 H                     0.104030
     19 H                     0.107746
     20 H                     0.103505
     21 H                     0.203076
     22 H                     0.106948
     23 H                     0.109622
     24 H                     0.176474
  ----------------------------------------
  Sum of atomic charges =     0.000000

                    Cartesian Multipole Moments
 -----------------------------------------------------------------
    Charge (ESU x 10^10)
                -0.0000
    Dipole Moment (Debye)
         X       4.8013      Y       0.5176      Z      -0.3910
       Tot       4.8449
    Quadrupole Moments (Debye-Ang)
        XX     -83.2574     XY       1.9763     YY     -84.8455
        XZ       0.4362     YZ       2.3446     ZZ     -84.2462

 Total job time:  784.67s(wall), 781.26s(cpu)
        *  Thank you very much for using Q-Chem.  Have a nice day.  *
