 Q-Chem 5.4, Q-Chem, Inc., Pleasanton, CA (2021)
 Q-Chem 5.4.0 for Intel X86 EM64T Linux

User input:
--------------------------------------------------------------
$molecule
0 1
C	0.265779	-3.866725	-0.728138
C	-0.209225	-3.703963	0.575726
C	-0.364875	-2.357056	1.002290
H	-0.445176	-4.561092	1.224486
C	-0.000000	-1.440664	-0.000000
S	0.528236	-2.286957	-1.451343
C	-0.862808	-1.978743	2.369683
H	-1.083368	-2.878678	2.975883
H	-1.793522	-1.376015	2.317142
H	-0.116375	-1.375728	2.927787
C	0.000000	0.000000	0.000000
C	0.075300	0.860311	1.099446
C	0.195935	2.238951	0.776721
H	0.043151	0.492916	2.136088
C	0.215188	2.458766	-0.612546
S	0.082160	0.938811	-1.486809
C	0.290762	3.322559	1.814609
H	0.253664	2.898542	2.836676
H	-0.541206	4.052140	1.726239
H	1.236797	3.896558	1.726228
H	0.297938	3.404370	-1.161575
H	-0.459743	-4.392713	-1.358585
H	1.227009	-4.392347	-0.744515
H	1.014829	-1.440391	0.369490
$end

$rem
JOBTYPE		SP
EXCHANGE	HF
CORRELATION	pRIMP2
BASIS		cc-pvtz
METHOD		rimp2
AUX_BASIS	rimp2-cc-pvtz
SOLVENT_METHOD	PCM
PURECART	11111
SYMMETRY	false
MEM_TOTAL	110000
SCF_CONVERGENCE = 6
THRESH=10
$end

$solvent
dielectric 4.90
$end
--------------------------------------------------------------

             Standard Nuclear Orientation (Angstroms)
    I     Atom           X                Y                Z
 ----------------------------------------------------------------
    1      C       0.2657790000    -3.8667250000    -0.7281380000
    2      C      -0.2092250000    -3.7039630000     0.5757260000
    3      C      -0.3648750000    -2.3570560000     1.0022900000
    4      H      -0.4451760000    -4.5610920000     1.2244860000
    5      C       0.0000000000    -1.4406640000     0.0000000000
    6      S       0.5282360000    -2.2869570000    -1.4513430000
    7      C      -0.8628080000    -1.9787430000     2.3696830000
    8      H      -1.0833680000    -2.8786780000     2.9758830000
    9      H      -1.7935220000    -1.3760150000     2.3171420000
   10      H      -0.1163750000    -1.3757280000     2.9277870000
   11      C       0.0000000000     0.0000000000     0.0000000000
   12      C       0.0753000000     0.8603110000     1.0994460000
   13      C       0.1959350000     2.2389510000     0.7767210000
   14      H       0.0431510000     0.4929160000     2.1360880000
   15      C       0.2151880000     2.4587660000    -0.6125460000
   16      S       0.0821600000     0.9388110000    -1.4868090000
   17      C       0.2907620000     3.3225590000     1.8146090000
   18      H       0.2536640000     2.8985420000     2.8366760000
   19      H      -0.5412060000     4.0521400000     1.7262390000
   20      H       1.2367970000     3.8965580000     1.7262280000
   21      H       0.2979380000     3.4043700000    -1.1615750000
   22      H      -0.4597430000    -4.3927130000    -1.3585850000
   23      H       1.2270090000    -4.3923470000    -0.7445150000
   24      H       1.0148290000    -1.4403910000     0.3694900000
 ----------------------------------------------------------------

   10   -1180.7577433612      5.02e-07  Convergence criterion met
 Total energy in the final basis set =    -1180.7577433612
        RIMP2         total energy =     -1182.7635193623 a.u.

                    Orbital Energies (a.u.)
 --------------------------------------------------------------

 Alpha MOs
 -- Occupied --
-91.9843 -91.9460 -11.2907 -11.2663 -11.2616 -11.2530 -11.2501 -11.2443
-11.2342 -11.2288 -11.2281 -11.2238  -8.9838  -8.9507  -6.6648  -6.6642
 -6.6636  -6.6321  -6.6310  -6.6298  -1.2025  -1.1523  -1.0605  -1.0318
 -1.0018  -0.9612  -0.9158  -0.8997  -0.8186  -0.7632  -0.7260  -0.7062
 -0.6603  -0.6486  -0.6108  -0.5933  -0.5862  -0.5692  -0.5597  -0.5535
 -0.5437  -0.5351  -0.5220  -0.5022  -0.4871  -0.4825  -0.4691  -0.4436
 -0.3603  -0.3441  -0.3234  -0.2649

          Ground-State Mulliken Net Atomic Charges

     Atom                 Charge (a.u.)
  ----------------------------------------
      1 C                    -0.074469
      2 C                    -0.312124
      3 C                    -0.063072
      4 H                     0.178455
      5 C                     0.125135
      6 S                    -0.180776
      7 C                    -0.296449
      8 H                     0.120991
      9 H                     0.118208
     10 H                     0.100441
     11 C                    -0.048857
     12 C                    -0.272084
     13 C                     0.032461
     14 H                     0.186996
     15 C                    -0.280792
     16 S                     0.008966
     17 C                    -0.273249
     18 H                     0.100544
     19 H                     0.108426
     20 H                     0.108607
     21 H                     0.196173
     22 H                     0.112475
     23 H                     0.112910
     24 H                     0.191086
  ----------------------------------------
  Sum of atomic charges =     0.000000

                    Cartesian Multipole Moments
 -----------------------------------------------------------------
    Charge (ESU x 10^10)
                -0.0000
    Dipole Moment (Debye)
         X       0.1125      Y      -0.5046      Z       3.8879
       Tot       3.9222
    Quadrupole Moments (Debye-Ang)
        XX     -91.4435     XY       0.5880     YY     -73.0045
        XZ      -0.2181     YZ      -2.6609     ZZ     -85.9506

 Total job time:  661.47s(wall), 657.49s(cpu)
        *  Thank you very much for using Q-Chem.  Have a nice day.  *
