 Q-Chem 5.4, Q-Chem, Inc., Pleasanton, CA (2021)
 Q-Chem 5.4.0 for Intel X86 EM64T Linux

User input:
--------------------------------------------------------------
$molecule
0 1
C	0.763475	-3.866725	-0.133897
C	-0.603206	-3.703963	0.106669
C	-1.050446	-2.357056	0.185154
H	-1.283024	-4.561092	0.226709
C	-0.000000	-1.440664	-0.000000
S	1.521018	-2.286957	-0.268206
C	-2.483610	-1.978743	0.437628
H	-3.118875	-2.878678	0.549717
H	-2.903464	-1.376015	-0.394664
H	-2.593726	-1.375728	1.363110
C	0.000000	0.000000	0.000000
C	0.555137	0.661535	1.099446
C	1.444710	1.721658	0.776721
H	0.318072	0.379023	2.136088
C	1.586563	1.890676	-0.612546
S	0.605781	0.721904	-1.486809
C	2.143920	2.554907	1.814609
H	1.870325	2.228851	2.836676
H	1.880882	3.629742	1.726239
H	3.248098	2.482476	1.726228
H	2.196723	2.617806	-1.161575
H	0.946698	-4.392713	-1.077442
H	1.258274	-4.392347	0.690363
H	-0.187427	-1.440937	-1.063612
$end

$rem
JOBTYPE		SP
EXCHANGE	HF
CORRELATION	pRIMP2
BASIS		cc-pvtz
METHOD		rimp2
AUX_BASIS	rimp2-cc-pvtz
SOLVENT_METHOD	PCM
PURECART	11111
SYMMETRY	false
MEM_TOTAL	110000
SCF_CONVERGENCE = 6
THRESH=10
$end

$solvent
dielectric 4.90
$end
--------------------------------------------------------------

             Standard Nuclear Orientation (Angstroms)
    I     Atom           X                Y                Z
 ----------------------------------------------------------------
    1      C       0.7634750000    -3.8667250000    -0.1338970000
    2      C      -0.6032060000    -3.7039630000     0.1066690000
    3      C      -1.0504460000    -2.3570560000     0.1851540000
    4      H      -1.2830240000    -4.5610920000     0.2267090000
    5      C       0.0000000000    -1.4406640000     0.0000000000
    6      S       1.5210180000    -2.2869570000    -0.2682060000
    7      C      -2.4836100000    -1.9787430000     0.4376280000
    8      H      -3.1188750000    -2.8786780000     0.5497170000
    9      H      -2.9034640000    -1.3760150000    -0.3946640000
   10      H      -2.5937260000    -1.3757280000     1.3631100000
   11      C       0.0000000000     0.0000000000     0.0000000000
   12      C       0.5551370000     0.6615350000     1.0994460000
   13      C       1.4447100000     1.7216580000     0.7767210000
   14      H       0.3180720000     0.3790230000     2.1360880000
   15      C       1.5865630000     1.8906760000    -0.6125460000
   16      S       0.6057810000     0.7219040000    -1.4868090000
   17      C       2.1439200000     2.5549070000     1.8146090000
   18      H       1.8703250000     2.2288510000     2.8366760000
   19      H       1.8808820000     3.6297420000     1.7262390000
   20      H       3.2480980000     2.4824760000     1.7262280000
   21      H       2.1967230000     2.6178060000    -1.1615750000
   22      H       0.9466980000    -4.3927130000    -1.0774420000
   23      H       1.2582740000    -4.3923470000     0.6903630000
   24      H      -0.1874270000    -1.4409370000    -1.0636120000
 ----------------------------------------------------------------

   10   -1180.7288205842      6.17e-07  Convergence criterion met
 Total energy in the final basis set =    -1180.7288205842
        RIMP2         total energy =     -1182.7406646466 a.u.

                    Orbital Energies (a.u.)
 --------------------------------------------------------------

 Alpha MOs
 -- Occupied --
-91.9837 -91.9371 -11.2760 -11.2645 -11.2586 -11.2512 -11.2512 -11.2470
-11.2382 -11.2302 -11.2290 -11.2144  -8.9839  -8.9420  -6.6647  -6.6641
 -6.6636  -6.6233  -6.6223  -6.6210  -1.1992  -1.1536  -1.0577  -1.0258
 -1.0004  -0.9635  -0.9106  -0.9005  -0.8105  -0.7597  -0.7447  -0.7028
 -0.6512  -0.6300  -0.6122  -0.5865  -0.5787  -0.5736  -0.5661  -0.5522
 -0.5417  -0.5311  -0.5076  -0.5067  -0.4893  -0.4717  -0.4637  -0.4465
 -0.3587  -0.3341  -0.3126  -0.2785

          Ground-State Mulliken Net Atomic Charges

     Atom                 Charge (a.u.)
  ----------------------------------------
      1 C                    -0.075591
      2 C                    -0.328049
      3 C                    -0.046883
      4 H                     0.173916
      5 C                     0.061771
      6 S                    -0.177266
      7 C                    -0.270660
      8 H                     0.112493
      9 H                     0.103000
     10 H                     0.103849
     11 C                    -0.108318
     12 C                    -0.183926
     13 C                     0.017760
     14 H                     0.183387
     15 C                    -0.211623
     16 S                     0.015784
     17 C                    -0.269207
     18 H                     0.102678
     19 H                     0.107331
     20 H                     0.107394
     21 H                     0.200300
     22 H                     0.107420
     23 H                     0.110648
     24 H                     0.163791
  ----------------------------------------
  Sum of atomic charges =     0.000000

                    Cartesian Multipole Moments
 -----------------------------------------------------------------
    Charge (ESU x 10^10)
                -0.0000
    Dipole Moment (Debye)
         X      -0.8518      Y       0.9959      Z       1.2400
       Tot       1.8041
    Quadrupole Moments (Debye-Ang)
        XX     -87.1151     XY       9.5640     YY     -79.0687
        XZ       0.1749     YZ       1.3259     ZZ     -85.4303

 Total job time:  653.99s(wall), 650.31s(cpu)
        *  Thank you very much for using Q-Chem.  Have a nice day.  *
