 Q-Chem 5.4, Q-Chem, Inc., Pleasanton, CA (2021)
 Q-Chem 5.4.0 for Intel X86 EM64T Linux

User input:
--------------------------------------------------------------
$molecule
0 1
C	-0.133897	-3.866725	-0.763475
C	0.106669	-3.703963	0.603206
C	0.185154	-2.357056	1.050446
H	0.226709	-4.561092	1.283024
C	-0.000000	-1.440664	-0.000000
S	-0.268206	-2.286957	-1.521018
C	0.437628	-1.978743	2.483610
H	0.549717	-2.878678	3.118875
H	-0.394664	-1.376015	2.903464
H	1.363110	-1.375728	2.593726
C	0.000000	0.000000	0.000000
C	0.149995	0.850475	1.099446
C	0.390327	2.213354	0.776721
H	0.085947	0.487279	2.136088
C	0.428665	2.430655	-0.612546
S	0.163670	0.928078	-1.486809
C	0.579235	3.284574	1.814609
H	0.505323	2.865404	2.836676
H	-0.185980	4.083890	1.726239
H	1.571698	3.773937	1.726228
H	0.593515	3.365448	-1.161575
H	-1.077442	-4.392713	-0.946698
H	0.690363	-4.392347	-1.258274
H	1.063612	-1.440391	-0.187427
$end

$rem
JOBTYPE		SP
EXCHANGE	HF
CORRELATION	pRIMP2
BASIS		cc-pvtz
METHOD		rimp2
AUX_BASIS	rimp2-cc-pvtz
SOLVENT_METHOD	PCM
PURECART	11111
SYMMETRY	false
MEM_TOTAL	110000
SCF_CONVERGENCE = 6
THRESH=10
$end

$solvent
dielectric 4.90
$end
--------------------------------------------------------------

   10   -1180.7570813913      5.06e-07  Convergence criterion met
 Total energy in the final basis set =    -1180.7570813913
        RIMP2         total energy =     -1182.7626302261 a.u.
 Total job time:  662.92s(wall), 659.71s(cpu)
        *  Thank you very much for using Q-Chem.  Have a nice day.  *
 Q-Chem 5.4, Q-Chem, Inc., Pleasanton, CA (2021)
 Q-Chem 5.4.0 for Intel X86 EM64T Linux

User input:
--------------------------------------------------------------
$molecule
0 1
C	-0.133897	-3.866725	-0.763475
C	0.106669	-3.703963	0.603206
C	0.185154	-2.357056	1.050446
H	0.226709	-4.561092	1.283024
C	-0.000000	-1.440664	-0.000000
S	-0.268206	-2.286957	-1.521018
C	0.437628	-1.978743	2.483610
H	0.549717	-2.878678	3.118875
H	-0.394664	-1.376015	2.903464
H	1.363110	-1.375728	2.593726
C	0.000000	0.000000	0.000000
C	0.149995	0.850475	1.099446
C	0.390327	2.213354	0.776721
H	0.085947	0.487279	2.136088
C	0.428665	2.430655	-0.612546
S	0.163670	0.928078	-1.486809
C	0.579235	3.284574	1.814609
H	0.505323	2.865404	2.836676
H	-0.185980	4.083890	1.726239
H	1.571698	3.773937	1.726228
H	0.593515	3.365448	-1.161575
H	-1.077442	-4.392713	-0.946698
H	0.690363	-4.392347	-1.258274
H	1.063612	-1.440391	-0.187427
$end

$rem
JOBTYPE		SP
EXCHANGE	HF
CORRELATION	pRIMP2
BASIS		cc-pvtz
METHOD		rimp2
AUX_BASIS	rimp2-cc-pvtz
SOLVENT_METHOD	PCM
PURECART	11111
SYMMETRY	false
MEM_TOTAL	110000
SCF_CONVERGENCE = 6
THRESH=10
$end

$solvent
dielectric 4.90
$end
--------------------------------------------------------------

             Standard Nuclear Orientation (Angstroms)
    I     Atom           X                Y                Z
 ----------------------------------------------------------------
    1      C      -0.1338970000    -3.8667250000    -0.7634750000
    2      C       0.1066690000    -3.7039630000     0.6032060000
    3      C       0.1851540000    -2.3570560000     1.0504460000
    4      H       0.2267090000    -4.5610920000     1.2830240000
    5      C       0.0000000000    -1.4406640000     0.0000000000
    6      S      -0.2682060000    -2.2869570000    -1.5210180000
    7      C       0.4376280000    -1.9787430000     2.4836100000
    8      H       0.5497170000    -2.8786780000     3.1188750000
    9      H      -0.3946640000    -1.3760150000     2.9034640000
   10      H       1.3631100000    -1.3757280000     2.5937260000
   11      C       0.0000000000     0.0000000000     0.0000000000
   12      C       0.1499950000     0.8504750000     1.0994460000
   13      C       0.3903270000     2.2133540000     0.7767210000
   14      H       0.0859470000     0.4872790000     2.1360880000
   15      C       0.4286650000     2.4306550000    -0.6125460000
   16      S       0.1636700000     0.9280780000    -1.4868090000
   17      C       0.5792350000     3.2845740000     1.8146090000
   18      H       0.5053230000     2.8654040000     2.8366760000
   19      H      -0.1859800000     4.0838900000     1.7262390000
   20      H       1.5716980000     3.7739370000     1.7262280000
   21      H       0.5935150000     3.3654480000    -1.1615750000
   22      H      -1.0774420000    -4.3927130000    -0.9466980000
   23      H       0.6903630000    -4.3923470000    -1.2582740000
   24      H       1.0636120000    -1.4403910000    -0.1874270000
 ----------------------------------------------------------------

   10   -1180.7570813913      5.06e-07  Convergence criterion met
 Total energy in the final basis set =    -1180.7570813913
        RIMP2         total energy =     -1182.7626302261 a.u.

                    Orbital Energies (a.u.)
 --------------------------------------------------------------

 Alpha MOs
 -- Occupied --
-91.9835 -91.9459 -11.2905 -11.2667 -11.2631 -11.2534 -11.2497 -11.2449
-11.2344 -11.2280 -11.2277 -11.2246  -8.9832  -8.9507  -6.6642  -6.6637
 -6.6630  -6.6321  -6.6311  -6.6298  -1.2033  -1.1523  -1.0609  -1.0326
 -1.0008  -0.9618  -0.9167  -0.8995  -0.8180  -0.7639  -0.7301  -0.7048
 -0.6576  -0.6485  -0.6106  -0.5946  -0.5841  -0.5689  -0.5617  -0.5515
 -0.5469  -0.5362  -0.5240  -0.5018  -0.4860  -0.4826  -0.4689  -0.4438
 -0.3610  -0.3438  -0.3246  -0.2647

          Ground-State Mulliken Net Atomic Charges

     Atom                 Charge (a.u.)
  ----------------------------------------
      1 C                    -0.074683
      2 C                    -0.307353
      3 C                    -0.061707
      4 H                     0.179436
      5 C                     0.125086
      6 S                    -0.178099
      7 C                    -0.304520
      8 H                     0.122173
      9 H                     0.107197
     10 H                     0.110623
     11 C                    -0.030306
     12 C                    -0.300337
     13 C                     0.048303
     14 H                     0.190210
     15 C                    -0.289599
     16 S                     0.004608
     17 C                    -0.272279
     18 H                     0.100536
     19 H                     0.108523
     20 H                     0.108662
     21 H                     0.196549
     22 H                     0.114160
     23 H                     0.112029
     24 H                     0.190787
  ----------------------------------------
  Sum of atomic charges =     0.000000

                    Cartesian Multipole Moments
 -----------------------------------------------------------------
    Charge (ESU x 10^10)
                -0.0000
    Dipole Moment (Debye)
         X       1.5207      Y      -0.5928      Z       3.5951
       Tot       3.9483
    Quadrupole Moments (Debye-Ang)
        XX     -91.5506     XY      -0.3625     YY     -72.8649
        XZ       0.0534     YZ      -2.0597     ZZ     -85.6821

 Total job time:  660.57s(wall), 657.56s(cpu)
        *  Thank you very much for using Q-Chem.  Have a nice day.  *
