 Q-Chem 5.4, Q-Chem, Inc., Pleasanton, CA (2021)
 Q-Chem 5.4.0 for Intel X86 EM64T Linux

User input:
--------------------------------------------------------------
$molecule
0 1
C	-0.593324	-3.866725	-0.498788
C	0.469446	-3.703963	0.393517
C	0.817050	-2.357056	0.685674
H	0.998381	-4.561092	0.837128
C	0.000000	-1.440664	0.000000
S	-1.183149	-2.286957	-0.992768
C	1.931676	-1.978743	1.621254
H	2.425882	-2.878678	2.035845
H	1.563980	-1.376015	2.477868
H	2.711417	-1.375728	1.110719
C	0.000000	0.000000	0.000000
C	0.431829	0.747884	1.099446
C	1.123799	1.946373	0.776721
H	0.247423	0.428497	2.136088
C	1.234147	2.137457	-0.612546
S	0.471221	0.816130	-1.486809
C	1.667694	2.888380	1.814609
H	1.454874	2.519768	2.836676
H	1.222009	3.901210	1.726239
H	2.767675	3.008788	1.726228
H	1.708773	2.959493	-1.161575
H	-1.433894	-4.392713	-0.032646
H	-0.279954	-4.392347	-1.407651
H	-0.694299	-1.440937	0.827254
$end

$rem
JOBTYPE		SP
EXCHANGE	HF
CORRELATION	pRIMP2
BASIS		cc-pvtz
METHOD		rimp2
AUX_BASIS	rimp2-cc-pvtz
SOLVENT_METHOD	PCM
PURECART	11111
SYMMETRY	false
MEM_TOTAL	110000
SCF_CONVERGENCE = 6
THRESH=10
$end

$solvent
dielectric 4.90
$end
--------------------------------------------------------------

             Standard Nuclear Orientation (Angstroms)
    I     Atom           X                Y                Z
 ----------------------------------------------------------------
    1      C      -0.5933240000    -3.8667250000    -0.4987880000
    2      C       0.4694460000    -3.7039630000     0.3935170000
    3      C       0.8170500000    -2.3570560000     0.6856740000
    4      H       0.9983810000    -4.5610920000     0.8371280000
    5      C       0.0000000000    -1.4406640000     0.0000000000
    6      S      -1.1831490000    -2.2869570000    -0.9927680000
    7      C       1.9316760000    -1.9787430000     1.6212540000
    8      H       2.4258820000    -2.8786780000     2.0358450000
    9      H       1.5639800000    -1.3760150000     2.4778680000
   10      H       2.7114170000    -1.3757280000     1.1107190000
   11      C       0.0000000000     0.0000000000     0.0000000000
   12      C       0.4318290000     0.7478840000     1.0994460000
   13      C       1.1237990000     1.9463730000     0.7767210000
   14      H       0.2474230000     0.4284970000     2.1360880000
   15      C       1.2341470000     2.1374570000    -0.6125460000
   16      S       0.4712210000     0.8161300000    -1.4868090000
   17      C       1.6676940000     2.8883800000     1.8146090000
   18      H       1.4548740000     2.5197680000     2.8366760000
   19      H       1.2220090000     3.9012100000     1.7262390000
   20      H       2.7676750000     3.0087880000     1.7262280000
   21      H       1.7087730000     2.9594930000    -1.1615750000
   22      H      -1.4338940000    -4.3927130000    -0.0326460000
   23      H      -0.2799540000    -4.3923470000    -1.4076510000
   24      H      -0.6942990000    -1.4409370000     0.8272540000
 ----------------------------------------------------------------

   10   -1180.7433515866      6.04e-07  Convergence criterion met
 Total energy in the final basis set =    -1180.7433515866
        RIMP2         total energy =     -1182.7547489863 a.u.

                    Orbital Energies (a.u.)
 --------------------------------------------------------------

 Alpha MOs
 -- Occupied --
-91.9793 -91.9404 -11.2758 -11.2680 -11.2631 -11.2551 -11.2518 -11.2453
-11.2405 -11.2313 -11.2299 -11.2191  -8.9795  -8.9451  -6.6604  -6.6597
 -6.6592  -6.6265  -6.6255  -6.6243  -1.1995  -1.1538  -1.0584  -1.0274
 -1.0031  -0.9624  -0.9120  -0.9013  -0.8143  -0.7605  -0.7332  -0.7073
 -0.6566  -0.6427  -0.6112  -0.5910  -0.5855  -0.5715  -0.5604  -0.5544
 -0.5412  -0.5311  -0.5199  -0.5078  -0.4843  -0.4726  -0.4614  -0.4456
 -0.3546  -0.3419  -0.3196  -0.2724

          Ground-State Mulliken Net Atomic Charges

     Atom                 Charge (a.u.)
  ----------------------------------------
      1 C                    -0.073395
      2 C                    -0.322721
      3 C                    -0.057608
      4 H                     0.177495
      5 C                     0.095577
      6 S                    -0.181014
      7 C                    -0.277313
      8 H                     0.118910
      9 H                     0.096665
     10 H                     0.114599
     11 C                    -0.053702
     12 C                    -0.288866
     13 C                     0.042753
     14 H                     0.193514
     15 C                    -0.235640
     16 S                     0.009058
     17 C                    -0.270944
     18 H                     0.101683
     19 H                     0.109220
     20 H                     0.107829
     21 H                     0.197486
     22 H                     0.109106
     23 H                     0.110114
     24 H                     0.177192
  ----------------------------------------
  Sum of atomic charges =     0.000000

                    Cartesian Multipole Moments
 -----------------------------------------------------------------
    Charge (ESU x 10^10)
                -0.0000
    Dipole Moment (Debye)
         X       2.3905      Y       0.4879      Z       3.7894
       Tot       4.5069
    Quadrupole Moments (Debye-Ang)
        XX     -88.7067     XY       2.9937     YY     -76.3320
        XZ       0.5657     YZ      -2.4289     ZZ     -86.3181

 Total job time:  665.51s(wall), 661.55s(cpu)
        *  Thank you very much for using Q-Chem.  Have a nice day.  *
