 Q-Chem 5.4, Q-Chem, Inc., Pleasanton, CA (2021)
 Q-Chem 5.4.0 for Intel X86 EM64T Linux

User input:
--------------------------------------------------------------
$molecule
0 1
C	0.763228	-3.866725	0.135301
C	-0.603311	-3.703963	-0.106073
C	-1.050423	-2.357056	-0.185286
H	-1.283188	-4.561092	-0.225783
C	0.000000	-1.440664	0.000000
S	1.521021	-2.286957	0.268187
C	-2.483507	-1.978743	-0.438209
H	-3.118798	-2.878678	-0.550153
H	-2.593381	-1.376015	-1.363906
H	-2.903516	-1.375728	0.393798
C	0.000000	0.000000	0.000000
C	0.661577	0.555087	1.099446
C	1.721724	1.444630	0.776721
H	0.379056	0.318032	2.136088
C	1.890772	1.586449	-0.612546
S	0.721935	0.605744	-1.486809
C	2.555004	2.143805	1.814609
H	2.228946	1.870211	2.836676
H	2.482605	3.247987	1.726239
H	3.629830	1.880735	1.726228
H	2.617927	2.196579	-1.161575
H	1.258111	-4.392713	-0.688674
H	0.946272	-4.392347	1.079084
H	0.187654	-1.440937	-1.063572
$end

$rem
JOBTYPE		SP
EXCHANGE	HF
CORRELATION	pRIMP2
BASIS		cc-pvtz
METHOD		rimp2
AUX_BASIS	rimp2-cc-pvtz
SOLVENT_METHOD	PCM
PURECART	11111
SYMMETRY	false
MEM_TOTAL	110000
SCF_CONVERGENCE = 6
THRESH=10
$end

$solvent
dielectric 4.90
$end
--------------------------------------------------------------

             Standard Nuclear Orientation (Angstroms)
    I     Atom           X                Y                Z
 ----------------------------------------------------------------
    1      C       0.7632280000    -3.8667250000     0.1353010000
    2      C      -0.6033110000    -3.7039630000    -0.1060730000
    3      C      -1.0504230000    -2.3570560000    -0.1852860000
    4      H      -1.2831880000    -4.5610920000    -0.2257830000
    5      C       0.0000000000    -1.4406640000     0.0000000000
    6      S       1.5210210000    -2.2869570000     0.2681870000
    7      C      -2.4835070000    -1.9787430000    -0.4382090000
    8      H      -3.1187980000    -2.8786780000    -0.5501530000
    9      H      -2.5933810000    -1.3760150000    -1.3639060000
   10      H      -2.9035160000    -1.3757280000     0.3937980000
   11      C       0.0000000000     0.0000000000     0.0000000000
   12      C       0.6615770000     0.5550870000     1.0994460000
   13      C       1.7217240000     1.4446300000     0.7767210000
   14      H       0.3790560000     0.3180320000     2.1360880000
   15      C       1.8907720000     1.5864490000    -0.6125460000
   16      S       0.7219350000     0.6057440000    -1.4868090000
   17      C       2.5550040000     2.1438050000     1.8146090000
   18      H       2.2289460000     1.8702110000     2.8366760000
   19      H       2.4826050000     3.2479870000     1.7262390000
   20      H       3.6298300000     1.8807350000     1.7262280000
   21      H       2.6179270000     2.1965790000    -1.1615750000
   22      H       1.2581110000    -4.3927130000    -0.6886740000
   23      H       0.9462720000    -4.3923470000     1.0790840000
   24      H       0.1876540000    -1.4409370000    -1.0635720000
 ----------------------------------------------------------------

   10   -1180.7072341930      7.21e-07  Convergence criterion met
 Total energy in the final basis set =    -1180.7072341930
        RIMP2         total energy =     -1182.7233401587 a.u.

                    Orbital Energies (a.u.)
 --------------------------------------------------------------

 Alpha MOs
 -- Occupied --
-91.9811 -91.9362 -11.2817 -11.2587 -11.2557 -11.2541 -11.2516 -11.2481
-11.2370 -11.2295 -11.2292 -11.2113  -8.9820  -8.9412  -6.6628  -6.6620
 -6.6616  -6.6225  -6.6215  -6.6202  -1.2027  -1.1533  -1.0588  -1.0244
 -1.0019  -0.9626  -0.9113  -0.9001  -0.8078  -0.7646  -0.7422  -0.7031
 -0.6500  -0.6290  -0.6142  -0.5866  -0.5774  -0.5764  -0.5661  -0.5513
 -0.5412  -0.5325  -0.5087  -0.5059  -0.4867  -0.4680  -0.4627  -0.4436
 -0.3585  -0.3345  -0.3152  -0.2736

          Ground-State Mulliken Net Atomic Charges

     Atom                 Charge (a.u.)
  ----------------------------------------
      1 C                    -0.078494
      2 C                    -0.335626
      3 C                    -0.050554
      4 H                     0.172797
      5 C                     0.067237
      6 S                    -0.189062
      7 C                    -0.273027
      8 H                     0.112787
      9 H                     0.100703
     10 H                     0.105861
     11 C                    -0.115921
     12 C                    -0.186816
     13 C                     0.022915
     14 H                     0.185476
     15 C                    -0.193142
     16 S                     0.014855
     17 C                    -0.267527
     18 H                     0.103112
     19 H                     0.108088
     20 H                     0.106996
     21 H                     0.201031
     22 H                     0.108196
     23 H                     0.109000
     24 H                     0.171117
  ----------------------------------------
  Sum of atomic charges =     0.000000

                    Cartesian Multipole Moments
 -----------------------------------------------------------------
    Charge (ESU x 10^10)
                -0.0000
    Dipole Moment (Debye)
         X      -0.0681      Y       1.0639      Z       0.5368
       Tot       1.1935
    Quadrupole Moments (Debye-Ang)
        XX     -84.7341     XY       9.2247     YY     -81.8749
        XZ       0.2484     YZ       2.5020     ZZ     -85.3625

 Total job time:  668.18s(wall), 664.24s(cpu)
        *  Thank you very much for using Q-Chem.  Have a nice day.  *
