 Q-Chem 5.4, Q-Chem, Inc., Pleasanton, CA (2021)
 Q-Chem 5.4.0 for Intel X86 EM64T Linux

User input:
--------------------------------------------------------------
$molecule
0 1
C	0.728138	-3.866725	0.265779
C	-0.575726	-3.703963	-0.209225
C	-1.002290	-2.357056	-0.364875
H	-1.224486	-4.561092	-0.445176
C	-0.000000	-1.440664	-0.000000
S	1.451343	-2.286957	0.528236
C	-2.369683	-1.978743	-0.862808
H	-2.975883	-2.878678	-1.083368
H	-2.317142	-1.376015	-1.793522
H	-2.927787	-1.375728	-0.116375
C	0.000000	0.000000	0.000000
C	0.075300	0.860311	1.099446
C	0.195935	2.238951	0.776721
H	0.043151	0.492916	2.136088
C	0.215188	2.458766	-0.612546
S	0.082160	0.938811	-1.486809
C	0.290762	3.322559	1.814609
H	0.253664	2.898542	2.836676
H	-0.541206	4.052140	1.726239
H	1.236797	3.896558	1.726228
H	0.297938	3.404370	-1.161575
H	1.358585	-4.392713	-0.459743
H	0.744515	-4.392347	1.227009
H	-0.369490	-1.440391	1.014829
$end

$rem
JOBTYPE		SP
EXCHANGE	HF
CORRELATION	pRIMP2
BASIS		cc-pvtz
METHOD		rimp2
AUX_BASIS	rimp2-cc-pvtz
SOLVENT_METHOD	PCM
PURECART	11111
SYMMETRY	false
MEM_TOTAL	110000
SCF_CONVERGENCE = 6
THRESH=10
$end

$solvent
dielectric 4.90
$end
--------------------------------------------------------------

             Standard Nuclear Orientation (Angstroms)
    I     Atom           X                Y                Z
 ----------------------------------------------------------------
    1      C       0.7281380000    -3.8667250000     0.2657790000
    2      C      -0.5757260000    -3.7039630000    -0.2092250000
    3      C      -1.0022900000    -2.3570560000    -0.3648750000
    4      H      -1.2244860000    -4.5610920000    -0.4451760000
    5      C       0.0000000000    -1.4406640000     0.0000000000
    6      S       1.4513430000    -2.2869570000     0.5282360000
    7      C      -2.3696830000    -1.9787430000    -0.8628080000
    8      H      -2.9758830000    -2.8786780000    -1.0833680000
    9      H      -2.3171420000    -1.3760150000    -1.7935220000
   10      H      -2.9277870000    -1.3757280000    -0.1163750000
   11      C       0.0000000000     0.0000000000     0.0000000000
   12      C       0.0753000000     0.8603110000     1.0994460000
   13      C       0.1959350000     2.2389510000     0.7767210000
   14      H       0.0431510000     0.4929160000     2.1360880000
   15      C       0.2151880000     2.4587660000    -0.6125460000
   16      S       0.0821600000     0.9388110000    -1.4868090000
   17      C       0.2907620000     3.3225590000     1.8146090000
   18      H       0.2536640000     2.8985420000     2.8366760000
   19      H      -0.5412060000     4.0521400000     1.7262390000
   20      H       1.2367970000     3.8965580000     1.7262280000
   21      H       0.2979380000     3.4043700000    -1.1615750000
   22      H       1.3585850000    -4.3927130000    -0.4597430000
   23      H       0.7445150000    -4.3923470000     1.2270090000
   24      H      -0.3694900000    -1.4403910000     1.0148290000
 ----------------------------------------------------------------

   10   -1180.7639575460      5.01e-07  Convergence criterion met
 Total energy in the final basis set =    -1180.7639575460
        RIMP2         total energy =     -1182.7685202761 a.u.

                    Orbital Energies (a.u.)
 --------------------------------------------------------------

 Alpha MOs
 -- Occupied --
-91.9806 -91.9418 -11.2824 -11.2636 -11.2629 -11.2559 -11.2508 -11.2425
-11.2410 -11.2316 -11.2291 -11.2198  -8.9806  -8.9464  -6.6615  -6.6609
 -6.6604  -6.6278  -6.6268  -6.6255  -1.1983  -1.1535  -1.0583  -1.0258
 -1.0067  -0.9588  -0.9127  -0.9010  -0.8151  -0.7642  -0.7330  -0.7006
 -0.6613  -0.6414  -0.6105  -0.5882  -0.5800  -0.5722  -0.5668  -0.5508
 -0.5416  -0.5314  -0.5134  -0.5061  -0.4919  -0.4819  -0.4592  -0.4491
 -0.3559  -0.3420  -0.3142  -0.2786

          Ground-State Mulliken Net Atomic Charges

     Atom                 Charge (a.u.)
  ----------------------------------------
      1 C                    -0.078287
      2 C                    -0.325862
      3 C                    -0.027268
      4 H                     0.176951
      5 C                     0.098634
      6 S                    -0.175665
      7 C                    -0.266591
      8 H                     0.112841
      9 H                     0.105545
     10 H                     0.103289
     11 C                    -0.082196
     12 C                    -0.250386
     13 C                     0.023937
     14 H                     0.183329
     15 C                    -0.239895
     16 S                     0.005507
     17 C                    -0.271554
     18 H                     0.102279
     19 H                     0.107788
     20 H                     0.108817
     21 H                     0.196634
     22 H                     0.113085
     23 H                     0.110780
     24 H                     0.168289
  ----------------------------------------
  Sum of atomic charges =     0.000000

                    Cartesian Multipole Moments
 -----------------------------------------------------------------
    Charge (ESU x 10^10)
                -0.0000
    Dipole Moment (Debye)
         X      -2.3895      Y       0.4671      Z       1.4386
       Tot       2.8279
    Quadrupole Moments (Debye-Ang)
        XX     -91.8149     XY       4.8539     YY     -73.6740
        XZ       0.4161     YZ       1.0734     ZZ     -85.8439

 Total job time:  647.42s(wall), 643.39s(cpu)
        *  Thank you very much for using Q-Chem.  Have a nice day.  *
