 Q-Chem 5.4, Q-Chem, Inc., Pleasanton, CA (2021)
 Q-Chem 5.4.0 for Intel X86 EM64T Linux

User input:
--------------------------------------------------------------
$molecule
0 1
C	0.775127	-3.866725	0.000713
C	-0.612565	-3.703963	0.000302
C	-1.066639	-2.357056	-0.000067
H	-1.302900	-4.561092	0.000470
C	-0.000000	-1.440664	-0.000000
S	1.544483	-2.286957	-0.000009
C	-2.521872	-1.978743	-0.000295
H	-3.166949	-2.878678	-0.000221
H	-2.790821	-1.376015	-0.892850
H	-2.791023	-1.375728	0.892005
C	0.000000	0.000000	0.000000
C	0.365003	0.782674	1.099446
C	0.949885	2.036912	0.776721
H	0.209135	0.448431	2.136088
C	1.043159	2.236886	-0.612546
S	0.398297	0.854094	-1.486809
C	1.409609	3.022738	1.814609
H	1.229726	2.636980	2.836676
H	0.877346	3.992870	1.726239
H	2.494910	3.238558	1.726228
H	1.444334	3.097160	-1.161575
H	1.119411	-4.392713	-0.896681
H	1.119277	-4.392347	0.898372
H	-0.000115	-1.440391	1.080000
$end

$rem
JOBTYPE		SP
EXCHANGE	HF
CORRELATION	pRIMP2
BASIS		cc-pvtz
METHOD		rimp2
AUX_BASIS	rimp2-cc-pvtz
SOLVENT_METHOD	PCM
PURECART	11111
SYMMETRY	false
MEM_TOTAL	110000
SCF_CONVERGENCE = 6
THRESH=10
$end

$solvent
dielectric 4.90
$end
--------------------------------------------------------------

             Standard Nuclear Orientation (Angstroms)
    I     Atom           X                Y                Z
 ----------------------------------------------------------------
    1      C       0.7751270000    -3.8667250000     0.0007130000
    2      C      -0.6125650000    -3.7039630000     0.0003020000
    3      C      -1.0666390000    -2.3570560000    -0.0000670000
    4      H      -1.3029000000    -4.5610920000     0.0004700000
    5      C       0.0000000000    -1.4406640000     0.0000000000
    6      S       1.5444830000    -2.2869570000    -0.0000090000
    7      C      -2.5218720000    -1.9787430000    -0.0002950000
    8      H      -3.1669490000    -2.8786780000    -0.0002210000
    9      H      -2.7908210000    -1.3760150000    -0.8928500000
   10      H      -2.7910230000    -1.3757280000     0.8920050000
   11      C       0.0000000000     0.0000000000     0.0000000000
   12      C       0.3650030000     0.7826740000     1.0994460000
   13      C       0.9498850000     2.0369120000     0.7767210000
   14      H       0.2091350000     0.4484310000     2.1360880000
   15      C       1.0431590000     2.2368860000    -0.6125460000
   16      S       0.3982970000     0.8540940000    -1.4868090000
   17      C       1.4096090000     3.0227380000     1.8146090000
   18      H       1.2297260000     2.6369800000     2.8366760000
   19      H       0.8773460000     3.9928700000     1.7262390000
   20      H       2.4949100000     3.2385580000     1.7262280000
   21      H       1.4443340000     3.0971600000    -1.1615750000
   22      H       1.1194110000    -4.3927130000    -0.8966810000
   23      H       1.1192770000    -4.3923470000     0.8983720000
   24      H      -0.0001150000    -1.4403910000     1.0800000000
 ----------------------------------------------------------------

   10   -1180.7534275728      5.36e-07  Convergence criterion met
 Total energy in the final basis set =    -1180.7534275728
        RIMP2         total energy =     -1182.7604366067 a.u.

                    Orbital Energies (a.u.)
 --------------------------------------------------------------

 Alpha MOs
 -- Occupied --
-91.9791 -91.9410 -11.2763 -11.2685 -11.2601 -11.2536 -11.2508 -11.2466
-11.2400 -11.2311 -11.2293 -11.2171  -8.9793  -8.9456  -6.6602  -6.6596
 -6.6591  -6.6270  -6.6259  -6.6247  -1.1982  -1.1536  -1.0575  -1.0259
 -1.0053  -0.9592  -0.9112  -0.9011  -0.8145  -0.7603  -0.7370  -0.7000
 -0.6602  -0.6400  -0.6104  -0.5887  -0.5809  -0.5713  -0.5655  -0.5500
 -0.5409  -0.5309  -0.5099  -0.5068  -0.4929  -0.4770  -0.4596  -0.4480
 -0.3572  -0.3386  -0.3117  -0.2815

          Ground-State Mulliken Net Atomic Charges

     Atom                 Charge (a.u.)
  ----------------------------------------
      1 C                    -0.073871
      2 C                    -0.326444
      3 C                    -0.035410
      4 H                     0.175012
      5 C                     0.066908
      6 S                    -0.169593
      7 C                    -0.270096
      8 H                     0.112471
      9 H                     0.106783
     10 H                     0.100760
     11 C                    -0.060452
     12 C                    -0.251236
     13 C                     0.034527
     14 H                     0.180185
     15 C                    -0.230674
     16 S                     0.006236
     17 C                    -0.269879
     18 H                     0.102024
     19 H                     0.107571
     20 H                     0.108602
     21 H                     0.197287
     22 H                     0.111255
     23 H                     0.108946
     24 H                     0.169087
  ----------------------------------------
  Sum of atomic charges =     0.000000

                    Cartesian Multipole Moments
 -----------------------------------------------------------------
    Charge (ESU x 10^10)
                -0.0000
    Dipole Moment (Debye)
         X      -1.5076      Y       0.6844      Z       2.3195
       Tot       2.8498
    Quadrupole Moments (Debye-Ang)
        XX     -89.7129     XY       7.7341     YY     -75.8673
        XZ       0.7743     YZ      -0.3717     ZZ     -85.9603

 Total job time:  642.84s(wall), 640.09s(cpu)
        *  Thank you very much for using Q-Chem.  Have a nice day.  *
