 Q-Chem 5.4, Q-Chem, Inc., Pleasanton, CA (2021)
 Q-Chem 5.4.0 for Intel X86 EM64T Linux

User input:
--------------------------------------------------------------
$molecule
0 1
C	0.728625	-3.866725	-0.264439
C	-0.575519	-3.703963	0.209794
C	-1.002336	-2.357056	0.364749
H	-1.224165	-4.561092	0.446060
C	-0.000000	-1.440664	-0.000000
S	1.451336	-2.286957	-0.528253
C	-2.369885	-1.978743	0.862253
H	-2.976034	-2.878678	1.082953
H	-2.927887	-1.376015	0.115513
H	-2.317620	-1.375728	1.792797
C	0.000000	0.000000	0.000000
C	0.365003	0.782674	1.099446
C	0.949885	2.036912	0.776721
H	0.209135	0.448431	2.136088
C	1.043159	2.236886	-0.612546
S	0.398297	0.854094	-1.486809
C	1.409609	3.022738	1.814609
H	1.229726	2.636980	2.836676
H	0.877346	3.992870	1.726239
H	2.494910	3.238558	1.726228
H	1.444334	3.097160	-1.161575
H	0.745219	-4.392713	-1.225465
H	1.359038	-4.392347	0.461378
H	0.369273	-1.440391	1.014907
$end

$rem
JOBTYPE		SP
EXCHANGE	HF
CORRELATION	pRIMP2
BASIS		cc-pvtz
METHOD		rimp2
AUX_BASIS	rimp2-cc-pvtz
SOLVENT_METHOD	PCM
PURECART	11111
SYMMETRY	false
MEM_TOTAL	110000
SCF_CONVERGENCE = 6
THRESH=10
$end

$solvent
dielectric 4.90
$end
--------------------------------------------------------------

             Standard Nuclear Orientation (Angstroms)
    I     Atom           X                Y                Z
 ----------------------------------------------------------------
    1      C       0.7286250000    -3.8667250000    -0.2644390000
    2      C      -0.5755190000    -3.7039630000     0.2097940000
    3      C      -1.0023360000    -2.3570560000     0.3647490000
    4      H      -1.2241650000    -4.5610920000     0.4460600000
    5      C       0.0000000000    -1.4406640000     0.0000000000
    6      S       1.4513360000    -2.2869570000    -0.5282530000
    7      C      -2.3698850000    -1.9787430000     0.8622530000
    8      H      -2.9760340000    -2.8786780000     1.0829530000
    9      H      -2.9278870000    -1.3760150000     0.1155130000
   10      H      -2.3176200000    -1.3757280000     1.7927970000
   11      C       0.0000000000     0.0000000000     0.0000000000
   12      C       0.3650030000     0.7826740000     1.0994460000
   13      C       0.9498850000     2.0369120000     0.7767210000
   14      H       0.2091350000     0.4484310000     2.1360880000
   15      C       1.0431590000     2.2368860000    -0.6125460000
   16      S       0.3982970000     0.8540940000    -1.4868090000
   17      C       1.4096090000     3.0227380000     1.8146090000
   18      H       1.2297260000     2.6369800000     2.8366760000
   19      H       0.8773460000     3.9928700000     1.7262390000
   20      H       2.4949100000     3.2385580000     1.7262280000
   21      H       1.4443340000     3.0971600000    -1.1615750000
   22      H       0.7452190000    -4.3927130000    -1.2254650000
   23      H       1.3590380000    -4.3923470000     0.4613780000
   24      H       0.3692730000    -1.4403910000     1.0149070000
 ----------------------------------------------------------------

   10   -1180.7500474609      5.34e-07  Convergence criterion met
 Total energy in the final basis set =    -1180.7500474609
        RIMP2         total energy =     -1182.7575536584 a.u.

                    Orbital Energies (a.u.)
 --------------------------------------------------------------

 Alpha MOs
 -- Occupied --
-91.9806 -91.9418 -11.2783 -11.2662 -11.2605 -11.2535 -11.2507 -11.2439
-11.2401 -11.2315 -11.2293 -11.2167  -8.9805  -8.9463  -6.6614  -6.6609
 -6.6603  -6.6277  -6.6267  -6.6254  -1.1988  -1.1533  -1.0577  -1.0269
 -1.0040  -0.9600  -0.9110  -0.9011  -0.8151  -0.7586  -0.7360  -0.7013
 -0.6608  -0.6409  -0.6100  -0.5885  -0.5821  -0.5706  -0.5644  -0.5509
 -0.5411  -0.5305  -0.5109  -0.5067  -0.4923  -0.4774  -0.4616  -0.4469
 -0.3567  -0.3393  -0.3151  -0.2764

          Ground-State Mulliken Net Atomic Charges

     Atom                 Charge (a.u.)
  ----------------------------------------
      1 C                    -0.073753
      2 C                    -0.330251
      3 C                    -0.033982
      4 H                     0.174690
      5 C                     0.058660
      6 S                    -0.167519
      7 C                    -0.270418
      8 H                     0.113451
      9 H                     0.108125
     10 H                     0.099429
     11 C                    -0.063229
     12 C                    -0.238300
     13 C                     0.023772
     14 H                     0.180983
     15 C                    -0.232359
     16 S                     0.008812
     17 C                    -0.271026
     18 H                     0.101694
     19 H                     0.107789
     20 H                     0.108422
     21 H                     0.196574
     22 H                     0.110303
     23 H                     0.109720
     24 H                     0.178413
  ----------------------------------------
  Sum of atomic charges =     0.000000

                    Cartesian Multipole Moments
 -----------------------------------------------------------------
    Charge (ESU x 10^10)
                -0.0000
    Dipole Moment (Debye)
         X      -1.1315      Y       0.5808      Z       3.0247
       Tot       3.2812
    Quadrupole Moments (Debye-Ang)
        XX     -89.5363     XY       6.8589     YY     -76.1452
        XZ       0.6382     YZ      -1.4746     ZZ     -86.0593

 Total job time:  646.02s(wall), 641.54s(cpu)
        *  Thank you very much for using Q-Chem.  Have a nice day.  *
