 Q-Chem 5.4, Q-Chem, Inc., Pleasanton, CA (2021)
 Q-Chem 5.4.0 for Intel X86 EM64T Linux

User input:
--------------------------------------------------------------
$molecule
0 1
C	-0.671636	-3.866725	0.386946
C	0.530345	-3.703963	-0.306544
C	0.923770	-2.357056	-0.533261
H	1.128109	-4.561092	-0.651857
C	-0.000000	-1.440664	-0.000000
S	-1.337557	-2.286957	0.772250
C	2.184153	-1.978743	-1.260680
H	2.742769	-2.878678	-1.583283
H	2.863347	-1.376015	-0.622180
H	1.971094	-1.375728	-2.168011
C	0.000000	0.000000	0.000000
C	0.075300	0.860311	1.099446
C	0.195935	2.238951	0.776721
H	0.043151	0.492916	2.136088
C	0.215188	2.458766	-0.612546
S	0.082160	0.938811	-1.486809
C	0.290762	3.322559	1.814609
H	0.253664	2.898542	2.836676
H	-0.541206	4.052140	1.726239
H	1.236797	3.896558	1.726228
H	0.297938	3.404370	-1.161575
H	-0.521098	-4.392713	1.336254
H	-1.418509	-4.392347	-0.218374
H	-0.539900	-1.440391	-0.935365
$end

$rem
JOBTYPE		SP
EXCHANGE	HF
CORRELATION	pRIMP2
BASIS		cc-pvtz
METHOD		rimp2
AUX_BASIS	rimp2-cc-pvtz
SOLVENT_METHOD	PCM
PURECART	11111
SYMMETRY	false
MEM_TOTAL	110000
SCF_CONVERGENCE = 6
THRESH=10
$end

$solvent
dielectric 4.90
$end
--------------------------------------------------------------

             Standard Nuclear Orientation (Angstroms)
    I     Atom           X                Y                Z
 ----------------------------------------------------------------
    1      C      -0.6716360000    -3.8667250000     0.3869460000
    2      C       0.5303450000    -3.7039630000    -0.3065440000
    3      C       0.9237700000    -2.3570560000    -0.5332610000
    4      H       1.1281090000    -4.5610920000    -0.6518570000
    5      C       0.0000000000    -1.4406640000     0.0000000000
    6      S      -1.3375570000    -2.2869570000     0.7722500000
    7      C       2.1841530000    -1.9787430000    -1.2606800000
    8      H       2.7427690000    -2.8786780000    -1.5832830000
    9      H       2.8633470000    -1.3760150000    -0.6221800000
   10      H       1.9710940000    -1.3757280000    -2.1680110000
   11      C       0.0000000000     0.0000000000     0.0000000000
   12      C       0.0753000000     0.8603110000     1.0994460000
   13      C       0.1959350000     2.2389510000     0.7767210000
   14      H       0.0431510000     0.4929160000     2.1360880000
   15      C       0.2151880000     2.4587660000    -0.6125460000
   16      S       0.0821600000     0.9388110000    -1.4868090000
   17      C       0.2907620000     3.3225590000     1.8146090000
   18      H       0.2536640000     2.8985420000     2.8366760000
   19      H      -0.5412060000     4.0521400000     1.7262390000
   20      H       1.2367970000     3.8965580000     1.7262280000
   21      H       0.2979380000     3.4043700000    -1.1615750000
   22      H      -0.5210980000    -4.3927130000     1.3362540000
   23      H      -1.4185090000    -4.3923470000    -0.2183740000
   24      H      -0.5399000000    -1.4403910000    -0.9353650000
 ----------------------------------------------------------------

   10   -1180.7593634244      4.96e-07  Convergence criterion met
 Total energy in the final basis set =    -1180.7593634244
        RIMP2         total energy =     -1182.7640480536 a.u.

                    Orbital Energies (a.u.)
 --------------------------------------------------------------

 Alpha MOs
 -- Occupied --
-91.9857 -91.9427 -11.2814 -11.2634 -11.2633 -11.2565 -11.2508 -11.2413
-11.2370 -11.2312 -11.2284 -11.2198  -8.9854  -8.9473  -6.6663  -6.6658
 -6.6652  -6.6287  -6.6276  -6.6264  -1.1989  -1.1535  -1.0593  -1.0256
 -1.0047  -0.9611  -0.9139  -0.9006  -0.8129  -0.7676  -0.7330  -0.7044
 -0.6545  -0.6367  -0.6107  -0.5900  -0.5761  -0.5741  -0.5695  -0.5534
 -0.5424  -0.5310  -0.5140  -0.5057  -0.4903  -0.4826  -0.4625  -0.4473
 -0.3556  -0.3428  -0.3173  -0.2764

          Ground-State Mulliken Net Atomic Charges

     Atom                 Charge (a.u.)
  ----------------------------------------
      1 C                    -0.077482
      2 C                    -0.327435
      3 C                    -0.037083
      4 H                     0.176803
      5 C                     0.119120
      6 S                    -0.175410
      7 C                    -0.270422
      8 H                     0.114711
      9 H                     0.110461
     10 H                     0.101544
     11 C                    -0.116154
     12 C                    -0.231053
     13 C                     0.022313
     14 H                     0.187219
     15 C                    -0.245614
     16 S                     0.012178
     17 C                    -0.272246
     18 H                     0.103058
     19 H                     0.108209
     20 H                     0.107835
     21 H                     0.197873
     22 H                     0.112035
     23 H                     0.111707
     24 H                     0.167832
  ----------------------------------------
  Sum of atomic charges =     0.000000

                    Cartesian Multipole Moments
 -----------------------------------------------------------------
    Charge (ESU x 10^10)
                -0.0000
    Dipole Moment (Debye)
         X       1.8780      Y       0.5014      Z      -0.4271
       Tot       1.9902
    Quadrupole Moments (Debye-Ang)
        XX     -91.3675     XY      -1.3930     YY     -73.5683
        XZ       0.1178     YZ       4.0109     ZZ     -86.1720

 Total job time:  649.35s(wall), 645.39s(cpu)
        *  Thank you very much for using Q-Chem.  Have a nice day.  *
