 Q-Chem 5.4, Q-Chem, Inc., Pleasanton, CA (2021)
 Q-Chem 5.4.0 for Intel X86 EM64T Linux

User input:
--------------------------------------------------------------
$molecule
0 1
C	0.265779	-3.866725	-0.728138
C	-0.209225	-3.703963	0.575726
C	-0.364875	-2.357056	1.002290
H	-0.445176	-4.561092	1.224486
C	-0.000000	-1.440664	-0.000000
S	0.528236	-2.286957	-1.451343
C	-0.862808	-1.978743	2.369683
H	-1.083368	-2.878678	2.975883
H	-1.793522	-1.376015	2.317142
H	-0.116375	-1.375728	2.927787
C	0.000000	0.000000	0.000000
C	0.365003	0.782674	1.099446
C	0.949885	2.036912	0.776721
H	0.209135	0.448431	2.136088
C	1.043159	2.236886	-0.612546
S	0.398297	0.854094	-1.486809
C	1.409609	3.022738	1.814609
H	1.229726	2.636980	2.836676
H	0.877346	3.992870	1.726239
H	2.494910	3.238558	1.726228
H	1.444334	3.097160	-1.161575
H	-0.459743	-4.392713	-1.358585
H	1.227009	-4.392347	-0.744515
H	-1.014829	-1.440937	-0.369490
$end

$rem
JOBTYPE		SP
EXCHANGE	HF
CORRELATION	pRIMP2
BASIS		cc-pvtz
METHOD		rimp2
AUX_BASIS	rimp2-cc-pvtz
SOLVENT_METHOD	PCM
PURECART	11111
SYMMETRY	false
MEM_TOTAL	110000
SCF_CONVERGENCE = 6
THRESH=10
$end

$solvent
dielectric 4.90
$end
--------------------------------------------------------------

             Standard Nuclear Orientation (Angstroms)
    I     Atom           X                Y                Z
 ----------------------------------------------------------------
    1      C       0.2657790000    -3.8667250000    -0.7281380000
    2      C      -0.2092250000    -3.7039630000     0.5757260000
    3      C      -0.3648750000    -2.3570560000     1.0022900000
    4      H      -0.4451760000    -4.5610920000     1.2244860000
    5      C       0.0000000000    -1.4406640000     0.0000000000
    6      S       0.5282360000    -2.2869570000    -1.4513430000
    7      C      -0.8628080000    -1.9787430000     2.3696830000
    8      H      -1.0833680000    -2.8786780000     2.9758830000
    9      H      -1.7935220000    -1.3760150000     2.3171420000
   10      H      -0.1163750000    -1.3757280000     2.9277870000
   11      C       0.0000000000     0.0000000000     0.0000000000
   12      C       0.3650030000     0.7826740000     1.0994460000
   13      C       0.9498850000     2.0369120000     0.7767210000
   14      H       0.2091350000     0.4484310000     2.1360880000
   15      C       1.0431590000     2.2368860000    -0.6125460000
   16      S       0.3982970000     0.8540940000    -1.4868090000
   17      C       1.4096090000     3.0227380000     1.8146090000
   18      H       1.2297260000     2.6369800000     2.8366760000
   19      H       0.8773460000     3.9928700000     1.7262390000
   20      H       2.4949100000     3.2385580000     1.7262280000
   21      H       1.4443340000     3.0971600000    -1.1615750000
   22      H      -0.4597430000    -4.3927130000    -1.3585850000
   23      H       1.2270090000    -4.3923470000    -0.7445150000
   24      H      -1.0148290000    -1.4409370000    -0.3694900000
 ----------------------------------------------------------------

   10   -1180.7402566459      5.33e-07  Convergence criterion met
 Total energy in the final basis set =    -1180.7402566459
        RIMP2         total energy =     -1182.7501597053 a.u.

                    Orbital Energies (a.u.)
 --------------------------------------------------------------

 Alpha MOs
 -- Occupied --
-91.9834 -91.9449 -11.2828 -11.2651 -11.2595 -11.2570 -11.2502 -11.2424
-11.2338 -11.2338 -11.2282 -11.2211  -8.9833  -8.9496  -6.6643  -6.6637
 -6.6631  -6.6309  -6.6299  -6.6286  -1.2013  -1.1528  -1.0592  -1.0316
 -1.0000  -0.9632  -0.9148  -0.8998  -0.8173  -0.7613  -0.7339  -0.7050
 -0.6544  -0.6435  -0.6098  -0.5933  -0.5846  -0.5681  -0.5653  -0.5510
 -0.5458  -0.5345  -0.5205  -0.5039  -0.4860  -0.4772  -0.4692  -0.4424
 -0.3591  -0.3429  -0.3237  -0.2624

          Ground-State Mulliken Net Atomic Charges

     Atom                 Charge (a.u.)
  ----------------------------------------
      1 C                    -0.078142
      2 C                    -0.321346
      3 C                    -0.040202
      4 H                     0.177525
      5 C                     0.107573
      6 S                    -0.174078
      7 C                    -0.298690
      8 H                     0.120423
      9 H                     0.112585
     10 H                     0.103516
     11 C                    -0.069138
     12 C                    -0.254811
     13 C                     0.030555
     14 H                     0.191794
     15 C                    -0.254913
     16 S                     0.002587
     17 C                    -0.271956
     18 H                     0.100561
     19 H                     0.108378
     20 H                     0.108000
     21 H                     0.198183
     22 H                     0.110838
     23 H                     0.113870
     24 H                     0.176888
  ----------------------------------------
  Sum of atomic charges =     0.000000

                    Cartesian Multipole Moments
 -----------------------------------------------------------------
    Charge (ESU x 10^10)
                -0.0000
    Dipole Moment (Debye)
         X      -0.9072      Y      -0.0674      Z       3.3180
       Tot       3.4405
    Quadrupole Moments (Debye-Ang)
        XX     -90.0811     XY       6.4747     YY     -75.0783
        XZ       0.4470     YZ      -1.8092     ZZ     -85.4701

 Total job time:  656.47s(wall), 652.87s(cpu)
        *  Thank you very much for using Q-Chem.  Have a nice day.  *
