 Q-Chem 5.4, Q-Chem, Inc., Pleasanton, CA (2021)
 Q-Chem 5.4.0 for Intel X86 EM64T Linux

User input:
--------------------------------------------------------------
$molecule
0 1
C	0.135301	-3.866725	-0.763228
C	-0.106073	-3.703963	0.603311
C	-0.185286	-2.357056	1.050423
H	-0.225783	-4.561092	1.283188
C	0.000000	-1.440664	0.000000
S	0.268187	-2.286957	-1.521021
C	-0.438209	-1.978743	2.483507
H	-0.550153	-2.878678	3.118798
H	-1.363906	-1.376015	2.593381
H	0.393798	-1.375728	2.903516
C	0.000000	0.000000	0.000000
C	0.223548	0.834165	1.099446
C	0.581748	2.170912	0.776721
H	0.128089	0.477934	2.136088
C	0.638880	2.384045	-0.612546
S	0.243934	0.910282	-1.486809
C	0.863301	3.221592	1.814609
H	0.753137	2.810458	2.836676
H	0.170663	4.084559	1.726239
H	1.894637	3.622593	1.726228
H	0.884575	3.300913	-1.161575
H	-0.688674	-4.392713	-1.258111
H	1.079084	-4.392347	-0.946272
H	-1.063572	-1.440937	-0.187654
$end

$rem
JOBTYPE		SP
EXCHANGE	HF
CORRELATION	pRIMP2
BASIS		cc-pvtz
METHOD		rimp2
AUX_BASIS	rimp2-cc-pvtz
SOLVENT_METHOD	PCM
PURECART	11111
SYMMETRY	false
MEM_TOTAL	110000
SCF_CONVERGENCE = 6
THRESH=10
$end

$solvent
dielectric 4.90
$end
--------------------------------------------------------------

             Standard Nuclear Orientation (Angstroms)
    I     Atom           X                Y                Z
 ----------------------------------------------------------------
    1      C       0.1353010000    -3.8667250000    -0.7632280000
    2      C      -0.1060730000    -3.7039630000     0.6033110000
    3      C      -0.1852860000    -2.3570560000     1.0504230000
    4      H      -0.2257830000    -4.5610920000     1.2831880000
    5      C       0.0000000000    -1.4406640000     0.0000000000
    6      S       0.2681870000    -2.2869570000    -1.5210210000
    7      C      -0.4382090000    -1.9787430000     2.4835070000
    8      H      -0.5501530000    -2.8786780000     3.1187980000
    9      H      -1.3639060000    -1.3760150000     2.5933810000
   10      H       0.3937980000    -1.3757280000     2.9035160000
   11      C       0.0000000000     0.0000000000     0.0000000000
   12      C       0.2235480000     0.8341650000     1.0994460000
   13      C       0.5817480000     2.1709120000     0.7767210000
   14      H       0.1280890000     0.4779340000     2.1360880000
   15      C       0.6388800000     2.3840450000    -0.6125460000
   16      S       0.2439340000     0.9102820000    -1.4868090000
   17      C       0.8633010000     3.2215920000     1.8146090000
   18      H       0.7531370000     2.8104580000     2.8366760000
   19      H       0.1706630000     4.0845590000     1.7262390000
   20      H       1.8946370000     3.6225930000     1.7262280000
   21      H       0.8845750000     3.3009130000    -1.1615750000
   22      H      -0.6886740000    -4.3927130000    -1.2581110000
   23      H       1.0790840000    -4.3923470000    -0.9462720000
   24      H      -1.0635720000    -1.4409370000    -0.1876540000
 ----------------------------------------------------------------

   10   -1180.7500221224      5.13e-07  Convergence criterion met
 Total energy in the final basis set =    -1180.7500221224
        RIMP2         total energy =     -1182.7574125499 a.u.

                    Orbital Energies (a.u.)
 --------------------------------------------------------------

 Alpha MOs
 -- Occupied --
-91.9837 -91.9463 -11.2878 -11.2665 -11.2603 -11.2551 -11.2497 -11.2442
-11.2343 -11.2297 -11.2280 -11.2231  -8.9834  -8.9510  -6.6644  -6.6638
 -6.6632  -6.6324  -6.6313  -6.6300  -1.2023  -1.1524  -1.0602  -1.0323
 -1.0007  -0.9623  -0.9162  -0.8995  -0.8183  -0.7629  -0.7305  -0.7055
 -0.6560  -0.6471  -0.6099  -0.5944  -0.5850  -0.5683  -0.5634  -0.5502
 -0.5467  -0.5355  -0.5230  -0.5020  -0.4862  -0.4798  -0.4701  -0.4429
 -0.3610  -0.3434  -0.3240  -0.2631

          Ground-State Mulliken Net Atomic Charges

     Atom                 Charge (a.u.)
  ----------------------------------------
      1 C                    -0.074561
      2 C                    -0.317298
      3 C                    -0.042440
      4 H                     0.178936
      5 C                     0.128499
      6 S                    -0.177587
      7 C                    -0.304266
      8 H                     0.122527
      9 H                     0.111296
     10 H                     0.105941
     11 C                    -0.061307
     12 C                    -0.272093
     13 C                     0.036925
     14 H                     0.190132
     15 C                    -0.275354
     16 S                     0.003352
     17 C                    -0.272525
     18 H                     0.100367
     19 H                     0.108394
     20 H                     0.108476
     21 H                     0.197386
     22 H                     0.111480
     23 H                     0.114468
     24 H                     0.179253
  ----------------------------------------
  Sum of atomic charges =     0.000000

                    Cartesian Multipole Moments
 -----------------------------------------------------------------
    Charge (ESU x 10^10)
                -0.0000
    Dipole Moment (Debye)
         X      -0.9104      Y      -0.4086      Z       3.5607
       Tot       3.6979
    Quadrupole Moments (Debye-Ang)
        XX     -91.2171     XY       4.5230     YY     -73.5026
        XZ       0.4259     YZ      -2.0732     ZZ     -85.5660

 Total job time:  671.10s(wall), 663.66s(cpu)
        *  Thank you very much for using Q-Chem.  Have a nice day.  *
