 Q-Chem 5.4, Q-Chem, Inc., Pleasanton, CA (2021)
 Q-Chem 5.4.0 for Intel X86 EM64T Linux

User input:
--------------------------------------------------------------
$molecule
0 1
C	0.135301	-3.866725	-0.763228
C	-0.106073	-3.703963	0.603311
C	-0.185286	-2.357056	1.050423
H	-0.225783	-4.561092	1.283188
C	0.000000	-1.440664	0.000000
S	0.268187	-2.286957	-1.521021
C	-0.438209	-1.978743	2.483507
H	-0.550153	-2.878678	3.118798
H	-1.363906	-1.376015	2.593381
H	0.393798	-1.375728	2.903516
C	0.000000	0.000000	0.000000
C	0.661577	0.555087	1.099446
C	1.721724	1.444630	0.776721
H	0.379056	0.318032	2.136088
C	1.890772	1.586449	-0.612546
S	0.721935	0.605744	-1.486809
C	2.555004	2.143805	1.814609
H	2.228946	1.870211	2.836676
H	2.482605	3.247987	1.726239
H	3.629830	1.880735	1.726228
H	2.617927	2.196579	-1.161575
H	-0.688674	-4.392713	-1.258111
H	1.079084	-4.392347	-0.946272
H	1.063572	-1.440391	0.187654
$end

$rem
JOBTYPE		SP
EXCHANGE	HF
CORRELATION	pRIMP2
BASIS		cc-pvtz
METHOD		rimp2
AUX_BASIS	rimp2-cc-pvtz
SOLVENT_METHOD	PCM
PURECART	11111
SYMMETRY	false
MEM_TOTAL	110000
SCF_CONVERGENCE = 6
THRESH=10
$end

$solvent
dielectric 4.90
$end
--------------------------------------------------------------

             Standard Nuclear Orientation (Angstroms)
    I     Atom           X                Y                Z
 ----------------------------------------------------------------
    1      C       0.1353010000    -3.8667250000    -0.7632280000
    2      C      -0.1060730000    -3.7039630000     0.6033110000
    3      C      -0.1852860000    -2.3570560000     1.0504230000
    4      H      -0.2257830000    -4.5610920000     1.2831880000
    5      C       0.0000000000    -1.4406640000     0.0000000000
    6      S       0.2681870000    -2.2869570000    -1.5210210000
    7      C      -0.4382090000    -1.9787430000     2.4835070000
    8      H      -0.5501530000    -2.8786780000     3.1187980000
    9      H      -1.3639060000    -1.3760150000     2.5933810000
   10      H       0.3937980000    -1.3757280000     2.9035160000
   11      C       0.0000000000     0.0000000000     0.0000000000
   12      C       0.6615770000     0.5550870000     1.0994460000
   13      C       1.7217240000     1.4446300000     0.7767210000
   14      H       0.3790560000     0.3180320000     2.1360880000
   15      C       1.8907720000     1.5864490000    -0.6125460000
   16      S       0.7219350000     0.6057440000    -1.4868090000
   17      C       2.5550040000     2.1438050000     1.8146090000
   18      H       2.2289460000     1.8702110000     2.8366760000
   19      H       2.4826050000     3.2479870000     1.7262390000
   20      H       3.6298300000     1.8807350000     1.7262280000
   21      H       2.6179270000     2.1965790000    -1.1615750000
   22      H      -0.6886740000    -4.3927130000    -1.2581110000
   23      H       1.0790840000    -4.3923470000    -0.9462720000
   24      H       1.0635720000    -1.4403910000     0.1876540000
 ----------------------------------------------------------------

   11   -1180.6988031545      5.27e-07  Convergence criterion met
 Total energy in the final basis set =    -1180.6988031545
        RIMP2         total energy =     -1182.7217501463 a.u.

                    Orbital Energies (a.u.)
 --------------------------------------------------------------

 Alpha MOs
 -- Occupied --
-91.9830 -91.9387 -11.2743 -11.2701 -11.2611 -11.2569 -11.2522 -11.2388
-11.2371 -11.2328 -11.2297 -11.2200  -8.9835  -8.9437  -6.6643  -6.6636
 -6.6632  -6.6250  -6.6239  -6.6226  -1.2080  -1.1528  -1.0603  -1.0330
 -0.9985  -0.9630  -0.9133  -0.9012  -0.8138  -0.7610  -0.7296  -0.7059
 -0.6610  -0.6465  -0.6114  -0.5947  -0.5858  -0.5710  -0.5589  -0.5535
 -0.5428  -0.5362  -0.5232  -0.5052  -0.4835  -0.4790  -0.4596  -0.4331
 -0.3626  -0.3412  -0.3218  -0.2570

          Ground-State Mulliken Net Atomic Charges

     Atom                 Charge (a.u.)
  ----------------------------------------
      1 C                    -0.083459
      2 C                    -0.305353
      3 C                    -0.070796
      4 H                     0.175307
      5 C                     0.110707
      6 S                    -0.188066
      7 C                    -0.290273
      8 H                     0.117848
      9 H                     0.114830
     10 H                     0.096889
     11 C                    -0.074148
     12 C                    -0.237476
     13 C                     0.019470
     14 H                     0.187868
     15 C                    -0.245779
     16 S                     0.032610
     17 C                    -0.268698
     18 H                     0.101639
     19 H                     0.108821
     20 H                     0.106031
     21 H                     0.199836
     22 H                     0.110052
     23 H                     0.109369
     24 H                     0.172772
  ----------------------------------------
  Sum of atomic charges =     0.000000

                    Cartesian Multipole Moments
 -----------------------------------------------------------------
    Charge (ESU x 10^10)
                -0.0000
    Dipole Moment (Debye)
         X       2.0617      Y      -0.0593      Z       3.8285
       Tot       4.3488
    Quadrupole Moments (Debye-Ang)
        XX     -85.0746     XY       4.7086     YY     -80.2288
        XZ       0.2044     YZ      -3.3705     ZZ     -85.4547

 Total job time:  749.67s(wall), 745.38s(cpu)
        *  Thank you very much for using Q-Chem.  Have a nice day.  *
