 Q-Chem 5.4, Q-Chem, Inc., Pleasanton, CA (2021)
 Q-Chem 5.4.0 for Intel X86 EM64T Linux

User input:
--------------------------------------------------------------
$molecule
0 1
C	0.336297	-3.852073	0.775127
C	0.322520	-3.689895	-0.612565
C	0.205498	-2.348081	-1.066639
H	0.397057	-4.543777	-1.302900
C	0.125562	-1.435182	0.000000
S	0.199331	-2.278254	1.544483
C	0.172753	-1.971188	-2.521872
H	0.251114	-2.867704	-3.166949
H	1.009380	-1.292962	-2.790821
H	-0.768708	-1.448236	-2.791023
C	0.000000	0.000000	0.000000
C	0.000033	0.863600	1.099446
C	0.000052	2.247508	0.776721
H	0.000026	0.494801	2.136088
C	0.000074	2.468165	-0.612546
S	0.000024	0.942399	-1.486809
C	0.000075	3.335257	1.814609
H	0.000074	2.909620	2.836676
H	-0.892314	3.989552	1.726239
H	0.892483	3.989525	1.726228
H	0.000094	3.417382	-1.161575
H	1.276119	-4.297846	1.119411
H	-0.512135	-4.453931	1.119277
H	1.201476	-1.341326	0.000115
$end

$rem
JOBTYPE		SP
EXCHANGE	HF
CORRELATION	pRIMP2
BASIS		cc-pvtz
METHOD		rimp2
AUX_BASIS	rimp2-cc-pvtz
SOLVENT_METHOD	PCM
PURECART	11111
SYMMETRY	false
MEM_TOTAL	110000
SCF_CONVERGENCE = 6
THRESH=10
$end

$solvent
dielectric 4.90
$end
--------------------------------------------------------------

             Standard Nuclear Orientation (Angstroms)
    I     Atom           X                Y                Z
 ----------------------------------------------------------------
    1      C       0.3362970000    -3.8520730000     0.7751270000
    2      C       0.3225200000    -3.6898950000    -0.6125650000
    3      C       0.2054980000    -2.3480810000    -1.0666390000
    4      H       0.3970570000    -4.5437770000    -1.3029000000
    5      C       0.1255620000    -1.4351820000     0.0000000000
    6      S       0.1993310000    -2.2782540000     1.5444830000
    7      C       0.1727530000    -1.9711880000    -2.5218720000
    8      H       0.2511140000    -2.8677040000    -3.1669490000
    9      H       1.0093800000    -1.2929620000    -2.7908210000
   10      H      -0.7687080000    -1.4482360000    -2.7910230000
   11      C       0.0000000000     0.0000000000     0.0000000000
   12      C       0.0000330000     0.8636000000     1.0994460000
   13      C       0.0000520000     2.2475080000     0.7767210000
   14      H       0.0000260000     0.4948010000     2.1360880000
   15      C       0.0000740000     2.4681650000    -0.6125460000
   16      S       0.0000240000     0.9423990000    -1.4868090000
   17      C       0.0000750000     3.3352570000     1.8146090000
   18      H       0.0000740000     2.9096200000     2.8366760000
   19      H      -0.8923140000     3.9895520000     1.7262390000
   20      H       0.8924830000     3.9895250000     1.7262280000
   21      H       0.0000940000     3.4173820000    -1.1615750000
   22      H       1.2761190000    -4.2978460000     1.1194110000
   23      H      -0.5121350000    -4.4539310000     1.1192770000
   24      H       1.2014760000    -1.3413260000     0.0001150000
 ----------------------------------------------------------------

   10   -1180.7592066987      5.11e-07  Convergence criterion met
 Total energy in the final basis set =    -1180.7592066987
        RIMP2         total energy =     -1182.7646328860 a.u.

                    Orbital Energies (a.u.)
 --------------------------------------------------------------

 Alpha MOs
 -- Occupied --
-91.9813 -91.9471 -11.2915 -11.2664 -11.2632 -11.2523 -11.2498 -11.2447
-11.2331 -11.2296 -11.2273 -11.2236  -8.9814  -8.9517  -6.6623  -6.6617
 -6.6610  -6.6331  -6.6320  -6.6308  -1.2033  -1.1522  -1.0614  -1.0290
 -1.0068  -0.9562  -0.9169  -0.9016  -0.8152  -0.7727  -0.7169  -0.7044
 -0.6611  -0.6491  -0.6112  -0.5920  -0.5826  -0.5715  -0.5682  -0.5543
 -0.5425  -0.5345  -0.5165  -0.5094  -0.4886  -0.4858  -0.4580  -0.4455
 -0.3594  -0.3419  -0.3270  -0.2649

          Ground-State Mulliken Net Atomic Charges

     Atom                 Charge (a.u.)
  ----------------------------------------
      1 C                    -0.073501
      2 C                    -0.315502
      3 C                    -0.056638
      4 H                     0.179544
      5 C                     0.149403
      6 S                    -0.186568
      7 C                    -0.312085
      8 H                     0.122811
      9 H                     0.110701
     10 H                     0.116363
     11 C                    -0.018573
     12 C                    -0.323608
     13 C                     0.047258
     14 H                     0.176580
     15 C                    -0.284907
     16 S                     0.006745
     17 C                    -0.272263
     18 H                     0.102658
     19 H                     0.108317
     20 H                     0.108520
     21 H                     0.196333
     22 H                     0.111801
     23 H                     0.113393
     24 H                     0.193218
  ----------------------------------------
  Sum of atomic charges =     0.000000

                    Cartesian Multipole Moments
 -----------------------------------------------------------------
    Charge (ESU x 10^10)
                -0.0000
    Dipole Moment (Debye)
         X       1.0469      Y      -0.5036      Z      -1.0960
       Tot       1.5971
    Quadrupole Moments (Debye-Ang)
        XX     -91.4550     XY      -2.2502     YY     -73.2597
        XZ      -0.0006     YZ       4.7252     ZZ     -85.5317

 Total job time:  661.39s(wall), 656.23s(cpu)
        *  Thank you very much for using Q-Chem.  Have a nice day.  *
