 Q-Chem 5.4, Q-Chem, Inc., Pleasanton, CA (2021)
 Q-Chem 5.4.0 for Intel X86 EM64T Linux

User input:
--------------------------------------------------------------
$molecule
0 1
C	-0.264439	-3.866725	-0.728625
C	0.209794	-3.703963	0.575519
C	0.364749	-2.357056	1.002336
H	0.446060	-4.561092	1.224165
C	0.000000	-1.440664	0.000000
S	-0.528253	-2.286957	-1.451336
C	0.862253	-1.978743	2.369885
H	1.082953	-2.878678	2.976034
H	0.115513	-1.376015	2.927887
H	1.792797	-1.375728	2.317620
C	0.000000	0.000000	0.000000
C	0.747916	0.431772	1.099446
C	1.946425	1.123709	0.776721
H	0.428523	0.247378	2.136088
C	2.137531	1.234018	-0.612546
S	0.816154	0.471179	-1.486809
C	2.888455	1.667564	1.814609
H	2.519842	1.454746	2.836676
H	3.008896	2.767543	1.726239
H	3.901271	1.221850	1.726228
H	2.959587	1.708609	-1.161575
H	-1.225465	-4.392713	-0.745219
H	0.461378	-4.392347	-1.359038
H	-1.014907	-1.440937	0.369273
$end

$rem
JOBTYPE		SP
EXCHANGE	HF
CORRELATION	pRIMP2
BASIS		cc-pvtz
METHOD		rimp2
AUX_BASIS	rimp2-cc-pvtz
SOLVENT_METHOD	PCM
PURECART	11111
SYMMETRY	false
MEM_TOTAL	110000
SCF_CONVERGENCE = 6
THRESH=10
$end

$solvent
dielectric 4.90
$end
--------------------------------------------------------------

             Standard Nuclear Orientation (Angstroms)
    I     Atom           X                Y                Z
 ----------------------------------------------------------------
    1      C      -0.2644390000    -3.8667250000    -0.7286250000
    2      C       0.2097940000    -3.7039630000     0.5755190000
    3      C       0.3647490000    -2.3570560000     1.0023360000
    4      H       0.4460600000    -4.5610920000     1.2241650000
    5      C       0.0000000000    -1.4406640000     0.0000000000
    6      S      -0.5282530000    -2.2869570000    -1.4513360000
    7      C       0.8622530000    -1.9787430000     2.3698850000
    8      H       1.0829530000    -2.8786780000     2.9760340000
    9      H       0.1155130000    -1.3760150000     2.9278870000
   10      H       1.7927970000    -1.3757280000     2.3176200000
   11      C       0.0000000000     0.0000000000     0.0000000000
   12      C       0.7479160000     0.4317720000     1.0994460000
   13      C       1.9464250000     1.1237090000     0.7767210000
   14      H       0.4285230000     0.2473780000     2.1360880000
   15      C       2.1375310000     1.2340180000    -0.6125460000
   16      S       0.8161540000     0.4711790000    -1.4868090000
   17      C       2.8884550000     1.6675640000     1.8146090000
   18      H       2.5198420000     1.4547460000     2.8366760000
   19      H       3.0088960000     2.7675430000     1.7262390000
   20      H       3.9012710000     1.2218500000     1.7262280000
   21      H       2.9595870000     1.7086090000    -1.1615750000
   22      H      -1.2254650000    -4.3927130000    -0.7452190000
   23      H       0.4613780000    -4.3923470000    -1.3590380000
   24      H      -1.0149070000    -1.4409370000     0.3692730000
 ----------------------------------------------------------------

   11   -1180.6625777217      5.93e-07  Convergence criterion met
 Total energy in the final basis set =    -1180.6625777217
        RIMP2         total energy =     -1182.6921495965 a.u.

                    Orbital Energies (a.u.)
 --------------------------------------------------------------

 Alpha MOs
 -- Occupied --
-91.9748 -91.9369 -11.2850 -11.2610 -11.2569 -11.2515 -11.2495 -11.2477
-11.2380 -11.2330 -11.2310 -11.2126  -8.9760  -8.9418  -6.6568  -6.6558
 -6.6556  -6.6231  -6.6221  -6.6209  -1.2052  -1.1532  -1.0585  -1.0338
 -0.9979  -0.9652  -0.9138  -0.9022  -0.8108  -0.7607  -0.7336  -0.7138
 -0.6482  -0.6435  -0.6133  -0.5979  -0.5921  -0.5695  -0.5592  -0.5499
 -0.5437  -0.5349  -0.5256  -0.5071  -0.4774  -0.4701  -0.4420  -0.4370
 -0.3583  -0.3370  -0.3216  -0.2552

          Ground-State Mulliken Net Atomic Charges

     Atom                 Charge (a.u.)
  ----------------------------------------
      1 C                    -0.073091
      2 C                    -0.347581
      3 C                    -0.047492
      4 H                     0.174774
      5 C                     0.083398
      6 S                    -0.197505
      7 C                    -0.282694
      8 H                     0.120392
      9 H                     0.095517
     10 H                     0.111403
     11 C                    -0.157557
     12 C                    -0.172222
     13 C                    -0.009720
     14 H                     0.203132
     15 C                    -0.181429
     16 S                     0.028014
     17 C                    -0.281083
     18 H                     0.103558
     19 H                     0.117725
     20 H                     0.107543
     21 H                     0.199646
     22 H                     0.107826
     23 H                     0.109566
     24 H                     0.187881
  ----------------------------------------
  Sum of atomic charges =     0.000000

                    Cartesian Multipole Moments
 -----------------------------------------------------------------
    Charge (ESU x 10^10)
                -0.0000
    Dipole Moment (Debye)
         X       2.7176      Y       0.4960      Z       4.2813
       Tot       5.0952
    Quadrupole Moments (Debye-Ang)
        XX     -82.4502     XY       5.3039     YY     -83.5034
        XZ       0.8312     YZ      -3.1032     ZZ     -85.2864

 Total job time:  797.48s(wall), 792.29s(cpu)
        *  Thank you very much for using Q-Chem.  Have a nice day.  *
