 Q-Chem 5.4, Q-Chem, Inc., Pleasanton, CA (2021)
 Q-Chem 5.4.0 for Intel X86 EM64T Linux

User input:
--------------------------------------------------------------
$molecule
0 1
C	-0.728138	-3.866725	-0.265779
C	0.575726	-3.703963	0.209225
C	1.002290	-2.357056	0.364875
H	1.224486	-4.561092	0.445176
C	0.000000	-1.440664	0.000000
S	-1.451343	-2.286957	-0.528236
C	2.369683	-1.978743	0.862808
H	2.975883	-2.878678	1.083368
H	2.317142	-1.376015	1.793522
H	2.927787	-1.375728	0.116375
C	0.000000	0.000000	0.000000
C	0.223548	0.834165	1.099446
C	0.581748	2.170912	0.776721
H	0.128089	0.477934	2.136088
C	0.638880	2.384045	-0.612546
S	0.243934	0.910282	-1.486809
C	0.863301	3.221592	1.814609
H	0.753137	2.810458	2.836676
H	0.170663	4.084559	1.726239
H	1.894637	3.622593	1.726228
H	0.884575	3.300913	-1.161575
H	-1.358585	-4.392713	0.459743
H	-0.744515	-4.392347	-1.227009
H	-0.369490	-1.440937	1.014829
$end

$rem
JOBTYPE		SP
EXCHANGE	HF
CORRELATION	pRIMP2
BASIS		cc-pvtz
METHOD		rimp2
AUX_BASIS	rimp2-cc-pvtz
SOLVENT_METHOD	PCM
PURECART	11111
SYMMETRY	false
MEM_TOTAL	110000
SCF_CONVERGENCE = 6
THRESH=10
$end

$solvent
dielectric 4.90
$end
--------------------------------------------------------------

             Standard Nuclear Orientation (Angstroms)
    I     Atom           X                Y                Z
 ----------------------------------------------------------------
    1      C      -0.7281380000    -3.8667250000    -0.2657790000
    2      C       0.5757260000    -3.7039630000     0.2092250000
    3      C       1.0022900000    -2.3570560000     0.3648750000
    4      H       1.2244860000    -4.5610920000     0.4451760000
    5      C       0.0000000000    -1.4406640000     0.0000000000
    6      S      -1.4513430000    -2.2869570000    -0.5282360000
    7      C       2.3696830000    -1.9787430000     0.8628080000
    8      H       2.9758830000    -2.8786780000     1.0833680000
    9      H       2.3171420000    -1.3760150000     1.7935220000
   10      H       2.9277870000    -1.3757280000     0.1163750000
   11      C       0.0000000000     0.0000000000     0.0000000000
   12      C       0.2235480000     0.8341650000     1.0994460000
   13      C       0.5817480000     2.1709120000     0.7767210000
   14      H       0.1280890000     0.4779340000     2.1360880000
   15      C       0.6388800000     2.3840450000    -0.6125460000
   16      S       0.2439340000     0.9102820000    -1.4868090000
   17      C       0.8633010000     3.2215920000     1.8146090000
   18      H       0.7531370000     2.8104580000     2.8366760000
   19      H       0.1706630000     4.0845590000     1.7262390000
   20      H       1.8946370000     3.6225930000     1.7262280000
   21      H       0.8845750000     3.3009130000    -1.1615750000
   22      H      -1.3585850000    -4.3927130000     0.4597430000
   23      H      -0.7445150000    -4.3923470000    -1.2270090000
   24      H      -0.3694900000    -1.4409370000     1.0148290000
 ----------------------------------------------------------------

   10   -1180.7600254409      5.17e-07  Convergence criterion met
 Total energy in the final basis set =    -1180.7600254409
        RIMP2         total energy =     -1182.7661149008 a.u.

                    Orbital Energies (a.u.)
 --------------------------------------------------------------

 Alpha MOs
 -- Occupied --
-91.9802 -91.9407 -11.2802 -11.2659 -11.2632 -11.2557 -11.2512 -11.2445
-11.2406 -11.2315 -11.2297 -11.2196  -8.9802  -8.9454  -6.6611  -6.6606
 -6.6600  -6.6268  -6.6257  -6.6245  -1.1984  -1.1539  -1.0583  -1.0262
 -1.0050  -0.9612  -0.9118  -0.9013  -0.8151  -0.7605  -0.7352  -0.7044
 -0.6600  -0.6416  -0.6107  -0.5900  -0.5814  -0.5716  -0.5642  -0.5520
 -0.5417  -0.5297  -0.5167  -0.5064  -0.4894  -0.4788  -0.4608  -0.4474
 -0.3552  -0.3418  -0.3148  -0.2797

          Ground-State Mulliken Net Atomic Charges

     Atom                 Charge (a.u.)
  ----------------------------------------
      1 C                    -0.076881
      2 C                    -0.327135
      3 C                    -0.020529
      4 H                     0.176496
      5 C                     0.075250
      6 S                    -0.176656
      7 C                    -0.267716
      8 H                     0.115202
      9 H                     0.099206
     10 H                     0.111189
     11 C                    -0.067908
     12 C                    -0.258369
     13 C                     0.025604
     14 H                     0.185961
     15 C                    -0.237346
     16 S                     0.004227
     17 C                    -0.271411
     18 H                     0.101884
     19 H                     0.108714
     20 H                     0.108123
     21 H                     0.197350
     22 H                     0.110882
     23 H                     0.111360
     24 H                     0.172504
  ----------------------------------------
  Sum of atomic charges =     0.000000

                    Cartesian Multipole Moments
 -----------------------------------------------------------------
    Charge (ESU x 10^10)
                -0.0000
    Dipole Moment (Debye)
         X       2.5294      Y       0.5661      Z       3.1122
       Tot       4.0503
    Quadrupole Moments (Debye-Ang)
        XX     -90.8379     XY      -0.1819     YY     -74.2718
        XZ       0.0794     YZ      -1.4720     ZZ     -86.2820

 Total job time:  658.67s(wall), 652.34s(cpu)
        *  Thank you very much for using Q-Chem.  Have a nice day.  *
