 Q-Chem 5.4, Q-Chem, Inc., Pleasanton, CA (2021)
 Q-Chem 5.4.0 for Intel X86 EM64T Linux

User input:
--------------------------------------------------------------
$molecule
0 1
C	-0.133897	-3.866725	-0.763475
C	0.106669	-3.703963	0.603206
C	0.185154	-2.357056	1.050446
H	0.226709	-4.561092	1.283024
C	0.000000	-1.440664	0.000000
S	-0.268206	-2.286957	-1.521018
C	0.437628	-1.978743	2.483610
H	0.549717	-2.878678	3.118875
H	-0.394664	-1.376015	2.903464
H	1.363110	-1.375728	2.593726
C	0.000000	0.000000	0.000000
C	0.747916	0.431772	1.099446
C	1.946425	1.123709	0.776721
H	0.428523	0.247378	2.136088
C	2.137531	1.234018	-0.612546
S	0.816154	0.471179	-1.486809
C	2.888455	1.667564	1.814609
H	2.519842	1.454746	2.836676
H	3.008896	2.767543	1.726239
H	3.901271	1.221850	1.726228
H	2.959587	1.708609	-1.161575
H	-1.077442	-4.392713	-0.946698
H	0.690363	-4.392347	-1.258274
H	-1.063612	-1.440937	0.187427
$end

$rem
JOBTYPE		SP
EXCHANGE	HF
CORRELATION	pRIMP2
BASIS		cc-pvtz
METHOD		rimp2
AUX_BASIS	rimp2-cc-pvtz
SOLVENT_METHOD	PCM
PURECART	11111
SYMMETRY	false
MEM_TOTAL	110000
SCF_CONVERGENCE = 6
THRESH=10
$end

$solvent
dielectric 4.90
$end
--------------------------------------------------------------

             Standard Nuclear Orientation (Angstroms)
    I     Atom           X                Y                Z
 ----------------------------------------------------------------
    1      C      -0.1338970000    -3.8667250000    -0.7634750000
    2      C       0.1066690000    -3.7039630000     0.6032060000
    3      C       0.1851540000    -2.3570560000     1.0504460000
    4      H       0.2267090000    -4.5610920000     1.2830240000
    5      C       0.0000000000    -1.4406640000     0.0000000000
    6      S      -0.2682060000    -2.2869570000    -1.5210180000
    7      C       0.4376280000    -1.9787430000     2.4836100000
    8      H       0.5497170000    -2.8786780000     3.1188750000
    9      H      -0.3946640000    -1.3760150000     2.9034640000
   10      H       1.3631100000    -1.3757280000     2.5937260000
   11      C       0.0000000000     0.0000000000     0.0000000000
   12      C       0.7479160000     0.4317720000     1.0994460000
   13      C       1.9464250000     1.1237090000     0.7767210000
   14      H       0.4285230000     0.2473780000     2.1360880000
   15      C       2.1375310000     1.2340180000    -0.6125460000
   16      S       0.8161540000     0.4711790000    -1.4868090000
   17      C       2.8884550000     1.6675640000     1.8146090000
   18      H       2.5198420000     1.4547460000     2.8366760000
   19      H       3.0088960000     2.7675430000     1.7262390000
   20      H       3.9012710000     1.2218500000     1.7262280000
   21      H       2.9595870000     1.7086090000    -1.1615750000
   22      H      -1.0774420000    -4.3927130000    -0.9466980000
   23      H       0.6903630000    -4.3923470000    -1.2582740000
   24      H      -1.0636120000    -1.4409370000     0.1874270000
 ----------------------------------------------------------------

   11   -1180.6581596065      6.49e-07  Convergence criterion met
 Total energy in the final basis set =    -1180.6581596065
        RIMP2         total energy =     -1182.6884070293 a.u.

                    Orbital Energies (a.u.)
 --------------------------------------------------------------

 Alpha MOs
 -- Occupied --
-91.9758 -91.9375 -11.2838 -11.2610 -11.2548 -11.2509 -11.2498 -11.2468
-11.2375 -11.2329 -11.2304 -11.2119  -8.9770  -8.9423  -6.6578  -6.6567
 -6.6566  -6.6237  -6.6226  -6.6214  -1.2049  -1.1528  -1.0581  -1.0340
 -0.9971  -0.9654  -0.9137  -0.9016  -0.8117  -0.7603  -0.7326  -0.7132
 -0.6482  -0.6433  -0.6122  -0.5978  -0.5904  -0.5690  -0.5613  -0.5477
 -0.5455  -0.5349  -0.5246  -0.5057  -0.4779  -0.4724  -0.4421  -0.4346
 -0.3613  -0.3371  -0.3200  -0.2517

          Ground-State Mulliken Net Atomic Charges

     Atom                 Charge (a.u.)
  ----------------------------------------
      1 C                    -0.076291
      2 C                    -0.347156
      3 C                    -0.037707
      4 H                     0.174360
      5 C                     0.075201
      6 S                    -0.194568
      7 C                    -0.286173
      8 H                     0.120153
      9 H                     0.100802
     10 H                     0.106845
     11 C                    -0.152006
     12 C                    -0.175039
     13 C                    -0.004520
     14 H                     0.202683
     15 C                    -0.185849
     16 S                     0.030752
     17 C                    -0.277547
     18 H                     0.101785
     19 H                     0.113573
     20 H                     0.106763
     21 H                     0.199540
     22 H                     0.108218
     23 H                     0.109556
     24 H                     0.186627
  ----------------------------------------
  Sum of atomic charges =     0.000000

                    Cartesian Multipole Moments
 -----------------------------------------------------------------
    Charge (ESU x 10^10)
                -0.0000
    Dipole Moment (Debye)
         X       2.2317      Y       0.4807      Z       4.1361
       Tot       4.7243
    Quadrupole Moments (Debye-Ang)
        XX     -82.5971     XY       5.8534     YY     -83.7804
        XZ       0.7148     YZ      -2.9893     ZZ     -85.0316

 Total job time:  796.21s(wall), 791.12s(cpu)
        *  Thank you very much for using Q-Chem.  Have a nice day.  *
