 Q-Chem 5.4, Q-Chem, Inc., Pleasanton, CA (2021)
 Q-Chem 5.4.0 for Intel X86 EM64T Linux

User input:
--------------------------------------------------------------
$molecule
0 1
C	-0.594240	-3.866725	0.497696
C	0.469057	-3.703963	-0.393981
C	0.817136	-2.357056	-0.685571
H	0.997777	-4.561092	-0.837848
C	0.000000	-1.440664	0.000000
S	-1.183137	-2.286957	0.992782
C	1.932056	-1.978743	-1.620802
H	2.426166	-2.878678	-2.035506
H	2.711806	-1.376015	-1.109943
H	1.564678	-1.375728	-2.477350
C	0.000000	0.000000	0.000000
C	0.661577	0.555087	1.099446
C	1.721724	1.444630	0.776721
H	0.379056	0.318032	2.136088
C	1.890772	1.586449	-0.612546
S	0.721935	0.605744	-1.486809
C	2.555004	2.143805	1.814609
H	2.228946	1.870211	2.836676
H	2.482605	3.247987	1.726239
H	3.629830	1.880735	1.726228
H	2.617927	2.196579	-1.161575
H	-0.281143	-4.392713	1.406441
H	-1.434879	-4.392347	0.031265
H	0.694122	-1.440937	0.827402
$end

$rem
JOBTYPE		SP
EXCHANGE	HF
CORRELATION	pRIMP2
BASIS		cc-pvtz
METHOD		rimp2
AUX_BASIS	rimp2-cc-pvtz
SOLVENT_METHOD	PCM
PURECART	11111
SYMMETRY	false
MEM_TOTAL	110000
SCF_CONVERGENCE = 6
THRESH=10
$end

$solvent
dielectric 4.90
$end
--------------------------------------------------------------

             Standard Nuclear Orientation (Angstroms)
    I     Atom           X                Y                Z
 ----------------------------------------------------------------
    1      C      -0.5942400000    -3.8667250000     0.4976960000
    2      C       0.4690570000    -3.7039630000    -0.3939810000
    3      C       0.8171360000    -2.3570560000    -0.6855710000
    4      H       0.9977770000    -4.5610920000    -0.8378480000
    5      C       0.0000000000    -1.4406640000     0.0000000000
    6      S      -1.1831370000    -2.2869570000     0.9927820000
    7      C       1.9320560000    -1.9787430000    -1.6208020000
    8      H       2.4261660000    -2.8786780000    -2.0355060000
    9      H       2.7118060000    -1.3760150000    -1.1099430000
   10      H       1.5646780000    -1.3757280000    -2.4773500000
   11      C       0.0000000000     0.0000000000     0.0000000000
   12      C       0.6615770000     0.5550870000     1.0994460000
   13      C       1.7217240000     1.4446300000     0.7767210000
   14      H       0.3790560000     0.3180320000     2.1360880000
   15      C       1.8907720000     1.5864490000    -0.6125460000
   16      S       0.7219350000     0.6057440000    -1.4868090000
   17      C       2.5550040000     2.1438050000     1.8146090000
   18      H       2.2289460000     1.8702110000     2.8366760000
   19      H       2.4826050000     3.2479870000     1.7262390000
   20      H       3.6298300000     1.8807350000     1.7262280000
   21      H       2.6179270000     2.1965790000    -1.1615750000
   22      H      -0.2811430000    -4.3927130000     1.4064410000
   23      H      -1.4348790000    -4.3923470000     0.0312650000
   24      H       0.6941220000    -1.4409370000     0.8274020000
 ----------------------------------------------------------------

   11   -1180.6852110988      5.58e-07  Convergence criterion met
 Total energy in the final basis set =    -1180.6852110988
        RIMP2         total energy =     -1182.7116800610 a.u.

                    Orbital Energies (a.u.)
 --------------------------------------------------------------

 Alpha MOs
 -- Occupied --
-91.9817 -91.9346 -11.2756 -11.2659 -11.2613 -11.2524 -11.2497 -11.2475
-11.2376 -11.2303 -11.2257 -11.2147  -8.9825  -8.9396  -6.6632  -6.6625
 -6.6623  -6.6210  -6.6200  -6.6187  -1.2054  -1.1527  -1.0595  -1.0243
 -1.0094  -0.9567  -0.9090  -0.9048  -0.8057  -0.7679  -0.7353  -0.6992
 -0.6619  -0.6386  -0.6100  -0.5861  -0.5833  -0.5758  -0.5668  -0.5557
 -0.5428  -0.5276  -0.5193  -0.5110  -0.4925  -0.4571  -0.4528  -0.4406
 -0.3512  -0.3420  -0.3188  -0.2603

          Ground-State Mulliken Net Atomic Charges

     Atom                 Charge (a.u.)
  ----------------------------------------
      1 C                    -0.069490
      2 C                    -0.340161
      3 C                    -0.038031
      4 H                     0.176157
      5 C                     0.075739
      6 S                    -0.211574
      7 C                    -0.280340
      8 H                     0.110791
      9 H                     0.107725
     10 H                     0.115888
     11 C                    -0.107141
     12 C                    -0.188421
     13 C                     0.002258
     14 H                     0.188781
     15 C                    -0.224770
     16 S                     0.033489
     17 C                    -0.267483
     18 H                     0.103155
     19 H                     0.107886
     20 H                     0.104773
     21 H                     0.199403
     22 H                     0.107144
     23 H                     0.109041
     24 H                     0.185184
  ----------------------------------------
  Sum of atomic charges =     0.000000

                    Cartesian Multipole Moments
 -----------------------------------------------------------------
    Charge (ESU x 10^10)
                -0.0000
    Dipole Moment (Debye)
         X       4.4347      Y       0.6522      Z       0.2137
       Tot       4.4875
    Quadrupole Moments (Debye-Ang)
        XX     -85.6478     XY       1.9977     YY     -82.3447
        XZ       0.5134     YZ       2.0035     ZZ     -84.7189

 Total job time:  753.85s(wall), 750.74s(cpu)
        *  Thank you very much for using Q-Chem.  Have a nice day.  *
