 Q-Chem 5.4, Q-Chem, Inc., Pleasanton, CA (2021)
 Q-Chem 5.4.0 for Intel X86 EM64T Linux

User input:
--------------------------------------------------------------
$molecule
0 1
C	0.386946	-3.866725	0.671636
C	-0.306544	-3.703963	-0.530345
C	-0.533261	-2.357056	-0.923770
H	-0.651857	-4.561092	-1.128109
C	0.000000	-1.440664	0.000000
S	0.772250	-2.286957	1.337557
C	-1.260680	-1.978743	-2.184153
H	-1.583283	-2.878678	-2.742769
H	-0.622180	-1.376015	-2.863347
H	-2.168011	-1.375728	-1.971094
C	0.000000	0.000000	0.000000
C	0.661577	0.555087	1.099446
C	1.721724	1.444630	0.776721
H	0.379056	0.318032	2.136088
C	1.890772	1.586449	-0.612546
S	0.721935	0.605744	-1.486809
C	2.555004	2.143805	1.814609
H	2.228946	1.870211	2.836676
H	2.482605	3.247987	1.726239
H	3.629830	1.880735	1.726228
H	2.617927	2.196579	-1.161575
H	1.336254	-4.392713	0.521098
H	-0.218374	-4.392347	1.418509
H	-0.935365	-1.440391	0.539900
$end

$rem
JOBTYPE		SP
EXCHANGE	HF
CORRELATION	pRIMP2
BASIS		cc-pvtz
METHOD		rimp2
AUX_BASIS	rimp2-cc-pvtz
SOLVENT_METHOD	PCM
PURECART	11111
SYMMETRY	false
MEM_TOTAL	110000
SCF_CONVERGENCE = 6
THRESH=10
$end

$solvent
dielectric 4.90
$end
--------------------------------------------------------------

             Standard Nuclear Orientation (Angstroms)
    I     Atom           X                Y                Z
 ----------------------------------------------------------------
    1      C       0.3869460000    -3.8667250000     0.6716360000
    2      C      -0.3065440000    -3.7039630000    -0.5303450000
    3      C      -0.5332610000    -2.3570560000    -0.9237700000
    4      H      -0.6518570000    -4.5610920000    -1.1281090000
    5      C       0.0000000000    -1.4406640000     0.0000000000
    6      S       0.7722500000    -2.2869570000     1.3375570000
    7      C      -1.2606800000    -1.9787430000    -2.1841530000
    8      H      -1.5832830000    -2.8786780000    -2.7427690000
    9      H      -0.6221800000    -1.3760150000    -2.8633470000
   10      H      -2.1680110000    -1.3757280000    -1.9710940000
   11      C       0.0000000000     0.0000000000     0.0000000000
   12      C       0.6615770000     0.5550870000     1.0994460000
   13      C       1.7217240000     1.4446300000     0.7767210000
   14      H       0.3790560000     0.3180320000     2.1360880000
   15      C       1.8907720000     1.5864490000    -0.6125460000
   16      S       0.7219350000     0.6057440000    -1.4868090000
   17      C       2.5550040000     2.1438050000     1.8146090000
   18      H       2.2289460000     1.8702110000     2.8366760000
   19      H       2.4826050000     3.2479870000     1.7262390000
   20      H       3.6298300000     1.8807350000     1.7262280000
   21      H       2.6179270000     2.1965790000    -1.1615750000
   22      H       1.3362540000    -4.3927130000     0.5210980000
   23      H      -0.2183740000    -4.3923470000     1.4185090000
   24      H      -0.9353650000    -1.4403910000     0.5399000000
 ----------------------------------------------------------------

   10   -1180.7031389770      9.25e-07  Convergence criterion met
 Total energy in the final basis set =    -1180.7031389770
        RIMP2         total energy =     -1182.7237358466 a.u.

                    Orbital Energies (a.u.)
 --------------------------------------------------------------

 Alpha MOs
 -- Occupied --
-91.9770 -91.9396 -11.2757 -11.2643 -11.2602 -11.2531 -11.2517 -11.2498
-11.2379 -11.2310 -11.2294 -11.2155  -8.9780  -8.9444  -6.6588  -6.6579
 -6.6575  -6.6257  -6.6246  -6.6233  -1.2022  -1.1538  -1.0583  -1.0263
 -1.0078  -0.9565  -0.9130  -0.9025  -0.8115  -0.7704  -0.7275  -0.6983
 -0.6561  -0.6410  -0.6127  -0.5886  -0.5832  -0.5774  -0.5666  -0.5521
 -0.5391  -0.5357  -0.5169  -0.5092  -0.4876  -0.4623  -0.4557  -0.4423
 -0.3552  -0.3396  -0.3256  -0.2589

          Ground-State Mulliken Net Atomic Charges

     Atom                 Charge (a.u.)
  ----------------------------------------
      1 C                    -0.084614
      2 C                    -0.330934
      3 C                    -0.057639
      4 H                     0.175423
      5 C                     0.100122
      6 S                    -0.189068
      7 C                    -0.290869
      8 H                     0.116877
      9 H                     0.110302
     10 H                     0.108644
     11 C                    -0.096028
     12 C                    -0.230014
     13 C                     0.028531
     14 H                     0.194390
     15 C                    -0.213074
     16 S                     0.011114
     17 C                    -0.268028
     18 H                     0.103360
     19 H                     0.108585
     20 H                     0.108110
     21 H                     0.197516
     22 H                     0.109252
     23 H                     0.108149
     24 H                     0.179893
  ----------------------------------------
  Sum of atomic charges =     0.000000

                    Cartesian Multipole Moments
 -----------------------------------------------------------------
    Charge (ESU x 10^10)
                -0.0000
    Dipole Moment (Debye)
         X      -0.0182      Y       0.5473      Z       0.0522
       Tot       0.5501
    Quadrupole Moments (Debye-Ang)
        XX     -85.1024     XY       8.8440     YY     -80.9013
        XZ       0.8171     YZ       3.1926     ZZ     -85.2267

 Total job time:  669.25s(wall), 666.77s(cpu)
        *  Thank you very much for using Q-Chem.  Have a nice day.  *
