 Q-Chem 5.4, Q-Chem, Inc., Pleasanton, CA (2021)
 Q-Chem 5.4.0 for Intel X86 EM64T Linux

User input:
--------------------------------------------------------------
$molecule
0 1
C	0.728625	-3.866725	-0.264439
C	-0.575519	-3.703963	0.209794
C	-1.002336	-2.357056	0.364749
H	-1.224165	-4.561092	0.446060
C	0.000000	-1.440664	0.000000
S	1.451336	-2.286957	-0.528253
C	-2.369885	-1.978743	0.862253
H	-2.976034	-2.878678	1.082953
H	-2.927887	-1.376015	0.115513
H	-2.317620	-1.375728	1.792797
C	0.000000	0.000000	0.000000
C	0.223548	0.834165	1.099446
C	0.581748	2.170912	0.776721
H	0.128089	0.477934	2.136088
C	0.638880	2.384045	-0.612546
S	0.243934	0.910282	-1.486809
C	0.863301	3.221592	1.814609
H	0.753137	2.810458	2.836676
H	0.170663	4.084559	1.726239
H	1.894637	3.622593	1.726228
H	0.884575	3.300913	-1.161575
H	0.745219	-4.392713	-1.225465
H	1.359038	-4.392347	0.461378
H	0.369273	-1.440391	1.014907
$end

$rem
JOBTYPE		SP
EXCHANGE	HF
CORRELATION	pRIMP2
BASIS		cc-pvtz
METHOD		rimp2
AUX_BASIS	rimp2-cc-pvtz
SOLVENT_METHOD	PCM
PURECART	11111
SYMMETRY	false
MEM_TOTAL	110000
SCF_CONVERGENCE = 6
THRESH=10
$end

$solvent
dielectric 4.90
$end
--------------------------------------------------------------

             Standard Nuclear Orientation (Angstroms)
    I     Atom           X                Y                Z
 ----------------------------------------------------------------
    1      C       0.7286250000    -3.8667250000    -0.2644390000
    2      C      -0.5755190000    -3.7039630000     0.2097940000
    3      C      -1.0023360000    -2.3570560000     0.3647490000
    4      H      -1.2241650000    -4.5610920000     0.4460600000
    5      C       0.0000000000    -1.4406640000     0.0000000000
    6      S       1.4513360000    -2.2869570000    -0.5282530000
    7      C      -2.3698850000    -1.9787430000     0.8622530000
    8      H      -2.9760340000    -2.8786780000     1.0829530000
    9      H      -2.9278870000    -1.3760150000     0.1155130000
   10      H      -2.3176200000    -1.3757280000     1.7927970000
   11      C       0.0000000000     0.0000000000     0.0000000000
   12      C       0.2235480000     0.8341650000     1.0994460000
   13      C       0.5817480000     2.1709120000     0.7767210000
   14      H       0.1280890000     0.4779340000     2.1360880000
   15      C       0.6388800000     2.3840450000    -0.6125460000
   16      S       0.2439340000     0.9102820000    -1.4868090000
   17      C       0.8633010000     3.2215920000     1.8146090000
   18      H       0.7531370000     2.8104580000     2.8366760000
   19      H       0.1706630000     4.0845590000     1.7262390000
   20      H       1.8946370000     3.6225930000     1.7262280000
   21      H       0.8845750000     3.3009130000    -1.1615750000
   22      H       0.7452190000    -4.3927130000    -1.2254650000
   23      H       1.3590380000    -4.3923470000     0.4613780000
   24      H       0.3692730000    -1.4403910000     1.0149070000
 ----------------------------------------------------------------

   10   -1180.7589880930      5.10e-07  Convergence criterion met
 Total energy in the final basis set =    -1180.7589880930
        RIMP2         total energy =     -1182.7643852934 a.u.

                    Orbital Energies (a.u.)
 --------------------------------------------------------------

 Alpha MOs
 -- Occupied --
-91.9807 -91.9424 -11.2813 -11.2640 -11.2620 -11.2551 -11.2506 -11.2425
-11.2408 -11.2318 -11.2292 -11.2183  -8.9806  -8.9470  -6.6616  -6.6610
 -6.6605  -6.6284  -6.6273  -6.6261  -1.1986  -1.1534  -1.0580  -1.0270
 -1.0044  -0.9602  -0.9117  -0.9009  -0.8158  -0.7596  -0.7350  -0.7023
 -0.6612  -0.6416  -0.6102  -0.5890  -0.5817  -0.5706  -0.5645  -0.5511
 -0.5416  -0.5304  -0.5122  -0.5063  -0.4920  -0.4803  -0.4615  -0.4477
 -0.3565  -0.3404  -0.3148  -0.2781

          Ground-State Mulliken Net Atomic Charges

     Atom                 Charge (a.u.)
  ----------------------------------------
      1 C                    -0.074047
      2 C                    -0.328590
      3 C                    -0.032765
      4 H                     0.175667
      5 C                     0.073464
      6 S                    -0.169483
      7 C                    -0.268502
      8 H                     0.113482
      9 H                     0.108330
     10 H                     0.099373
     11 C                    -0.067349
     12 C                    -0.246086
     13 C                     0.023816
     14 H                     0.181760
     15 C                    -0.238378
     16 S                     0.008013
     17 C                    -0.272117
     18 H                     0.101662
     19 H                     0.107899
     20 H                     0.108744
     21 H                     0.196321
     22 H                     0.111076
     23 H                     0.110758
     24 H                     0.176951
  ----------------------------------------
  Sum of atomic charges =     0.000000

                    Cartesian Multipole Moments
 -----------------------------------------------------------------
    Charge (ESU x 10^10)
                -0.0000
    Dipole Moment (Debye)
         X      -1.5042      Y       0.4906      Z       3.0322
       Tot       3.4202
    Quadrupole Moments (Debye-Ang)
        XX     -90.7521     XY       5.4095     YY     -74.5804
        XZ       0.4807     YZ      -1.4155     ZZ     -86.1780

 Total job time:  651.92s(wall), 646.12s(cpu)
        *  Thank you very much for using Q-Chem.  Have a nice day.  *
