 Q-Chem 5.4, Q-Chem, Inc., Pleasanton, CA (2021)
 Q-Chem 5.4.0 for Intel X86 EM64T Linux

User input:
--------------------------------------------------------------
$molecule
0 1
C	0.386946	-3.866725	0.671636
C	-0.306544	-3.703963	-0.530345
C	-0.533261	-2.357056	-0.923770
H	-0.651857	-4.561092	-1.128109
C	-0.000000	-1.440664	-0.000000
S	0.772250	-2.286957	1.337557
C	-1.260680	-1.978743	-2.184153
H	-1.583283	-2.878678	-2.742769
H	-0.622180	-1.376015	-2.863347
H	-2.168011	-1.375728	-1.971094
C	0.000000	0.000000	0.000000
C	0.555137	0.661535	1.099446
C	1.444710	1.721658	0.776721
H	0.318072	0.379023	2.136088
C	1.586563	1.890676	-0.612546
S	0.605781	0.721904	-1.486809
C	2.143920	2.554907	1.814609
H	1.870325	2.228851	2.836676
H	1.880882	3.629742	1.726239
H	3.248098	2.482476	1.726228
H	2.196723	2.617806	-1.161575
H	1.336254	-4.392713	0.521098
H	-0.218374	-4.392347	1.418509
H	0.935365	-1.440937	-0.539900
$end

$rem
JOBTYPE		SP
EXCHANGE	HF
CORRELATION	pRIMP2
BASIS		cc-pvtz
METHOD		rimp2
AUX_BASIS	rimp2-cc-pvtz
SOLVENT_METHOD	PCM
PURECART	11111
SYMMETRY	false
MEM_TOTAL	110000
SCF_CONVERGENCE = 6
THRESH=10
$end

$solvent
dielectric 4.90
$end
--------------------------------------------------------------

             Standard Nuclear Orientation (Angstroms)
    I     Atom           X                Y                Z
 ----------------------------------------------------------------
    1      C       0.3869460000    -3.8667250000     0.6716360000
    2      C      -0.3065440000    -3.7039630000    -0.5303450000
    3      C      -0.5332610000    -2.3570560000    -0.9237700000
    4      H      -0.6518570000    -4.5610920000    -1.1281090000
    5      C       0.0000000000    -1.4406640000     0.0000000000
    6      S       0.7722500000    -2.2869570000     1.3375570000
    7      C      -1.2606800000    -1.9787430000    -2.1841530000
    8      H      -1.5832830000    -2.8786780000    -2.7427690000
    9      H      -0.6221800000    -1.3760150000    -2.8633470000
   10      H      -2.1680110000    -1.3757280000    -1.9710940000
   11      C       0.0000000000     0.0000000000     0.0000000000
   12      C       0.5551370000     0.6615350000     1.0994460000
   13      C       1.4447100000     1.7216580000     0.7767210000
   14      H       0.3180720000     0.3790230000     2.1360880000
   15      C       1.5865630000     1.8906760000    -0.6125460000
   16      S       0.6057810000     0.7219040000    -1.4868090000
   17      C       2.1439200000     2.5549070000     1.8146090000
   18      H       1.8703250000     2.2288510000     2.8366760000
   19      H       1.8808820000     3.6297420000     1.7262390000
   20      H       3.2480980000     2.4824760000     1.7262280000
   21      H       2.1967230000     2.6178060000    -1.1615750000
   22      H       1.3362540000    -4.3927130000     0.5210980000
   23      H      -0.2183740000    -4.3923470000     1.4185090000
   24      H       0.9353650000    -1.4409370000    -0.5399000000
 ----------------------------------------------------------------

   10   -1180.7296414400      5.66e-07  Convergence criterion met
 Total energy in the final basis set =    -1180.7296414400
        RIMP2         total energy =     -1182.7421780729 a.u.

                    Orbital Energies (a.u.)
 --------------------------------------------------------------

 Alpha MOs
 -- Occupied --
-91.9774 -91.9430 -11.2789 -11.2668 -11.2599 -11.2567 -11.2516 -11.2415
-11.2405 -11.2321 -11.2287 -11.2201  -8.9786  -8.9474  -6.6595  -6.6588
 -6.6582  -6.6288  -6.6278  -6.6265  -1.2047  -1.1535  -1.0609  -1.0273
 -1.0052  -0.9581  -0.9150  -0.9015  -0.8107  -0.7721  -0.7247  -0.7030
 -0.6559  -0.6440  -0.6123  -0.5909  -0.5797  -0.5751  -0.5693  -0.5527
 -0.5425  -0.5353  -0.5152  -0.5101  -0.4870  -0.4737  -0.4606  -0.4420
 -0.3572  -0.3433  -0.3266  -0.2635

          Ground-State Mulliken Net Atomic Charges

     Atom                 Charge (a.u.)
  ----------------------------------------
      1 C                    -0.080076
      2 C                    -0.314099
      3 C                    -0.066194
      4 H                     0.175793
      5 C                     0.111678
      6 S                    -0.186995
      7 C                    -0.290700
      8 H                     0.116774
      9 H                     0.107263
     10 H                     0.113746
     11 C                    -0.016232
     12 C                    -0.309223
     13 C                     0.050612
     14 H                     0.185637
     15 C                    -0.246857
     16 S                    -0.002707
     17 C                    -0.268593
     18 H                     0.103304
     19 H                     0.108881
     20 H                     0.108608
     21 H                     0.197145
     22 H                     0.110671
     23 H                     0.109974
     24 H                     0.181589
  ----------------------------------------
  Sum of atomic charges =     0.000000

                    Cartesian Multipole Moments
 -----------------------------------------------------------------
    Charge (ESU x 10^10)
                -0.0000
    Dipole Moment (Debye)
         X       0.7581      Y       0.0294      Z      -0.8465
       Tot       1.1367
    Quadrupole Moments (Debye-Ang)
        XX     -86.8524     XY       5.9493     YY     -77.7924
        XZ       0.9898     YZ       4.8094     ZZ     -86.0205

 Total job time:  659.22s(wall), 655.49s(cpu)
        *  Thank you very much for using Q-Chem.  Have a nice day.  *
