 Q-Chem 5.4, Q-Chem, Inc., Pleasanton, CA (2021)
 Q-Chem 5.4.0 for Intel X86 EM64T Linux

User input:
--------------------------------------------------------------
$molecule
0 1
C	0.133897	-3.866725	0.763475
C	-0.106669	-3.703963	-0.603206
C	-0.185154	-2.357056	-1.050446
H	-0.226709	-4.561092	-1.283024
C	-0.000000	-1.440664	-0.000000
S	0.268206	-2.286957	1.521018
C	-0.437628	-1.978743	-2.483610
H	-0.549717	-2.878678	-3.118875
H	0.394664	-1.376015	-2.903464
H	-1.363110	-1.375728	-2.593726
C	0.000000	0.000000	0.000000
C	0.555137	0.661535	1.099446
C	1.444710	1.721658	0.776721
H	0.318072	0.379023	2.136088
C	1.586563	1.890676	-0.612546
S	0.605781	0.721904	-1.486809
C	2.143920	2.554907	1.814609
H	1.870325	2.228851	2.836676
H	1.880882	3.629742	1.726239
H	3.248098	2.482476	1.726228
H	2.196723	2.617806	-1.161575
H	1.077442	-4.392713	0.946698
H	-0.690363	-4.392347	1.258274
H	-1.063612	-1.440391	0.187427
$end

$rem
JOBTYPE		SP
EXCHANGE	HF
CORRELATION	pRIMP2
BASIS		cc-pvtz
METHOD		rimp2
AUX_BASIS	rimp2-cc-pvtz
SOLVENT_METHOD	PCM
PURECART	11111
SYMMETRY	false
MEM_TOTAL	110000
SCF_CONVERGENCE = 6
THRESH=10
$end

$solvent
dielectric 4.90
$end
--------------------------------------------------------------

             Standard Nuclear Orientation (Angstroms)
    I     Atom           X                Y                Z
 ----------------------------------------------------------------
    1      C       0.1338970000    -3.8667250000     0.7634750000
    2      C      -0.1066690000    -3.7039630000    -0.6032060000
    3      C      -0.1851540000    -2.3570560000    -1.0504460000
    4      H      -0.2267090000    -4.5610920000    -1.2830240000
    5      C       0.0000000000    -1.4406640000     0.0000000000
    6      S       0.2682060000    -2.2869570000     1.5210180000
    7      C      -0.4376280000    -1.9787430000    -2.4836100000
    8      H      -0.5497170000    -2.8786780000    -3.1188750000
    9      H       0.3946640000    -1.3760150000    -2.9034640000
   10      H      -1.3631100000    -1.3757280000    -2.5937260000
   11      C       0.0000000000     0.0000000000     0.0000000000
   12      C       0.5551370000     0.6615350000     1.0994460000
   13      C       1.4447100000     1.7216580000     0.7767210000
   14      H       0.3180720000     0.3790230000     2.1360880000
   15      C       1.5865630000     1.8906760000    -0.6125460000
   16      S       0.6057810000     0.7219040000    -1.4868090000
   17      C       2.1439200000     2.5549070000     1.8146090000
   18      H       1.8703250000     2.2288510000     2.8366760000
   19      H       1.8808820000     3.6297420000     1.7262390000
   20      H       3.2480980000     2.4824760000     1.7262280000
   21      H       2.1967230000     2.6178060000    -1.1615750000
   22      H       1.0774420000    -4.3927130000     0.9466980000
   23      H      -0.6903630000    -4.3923470000     1.2582740000
   24      H      -1.0636120000    -1.4403910000     0.1874270000
 ----------------------------------------------------------------

   10   -1180.7160044670      7.41e-07  Convergence criterion met
 Total energy in the final basis set =    -1180.7160044670
        RIMP2         total energy =     -1182.7337786750 a.u.

                    Orbital Energies (a.u.)
 --------------------------------------------------------------

 Alpha MOs
 -- Occupied --
-91.9779 -91.9430 -11.2750 -11.2652 -11.2639 -11.2536 -11.2510 -11.2423
-11.2408 -11.2306 -11.2282 -11.2175  -8.9787  -8.9477  -6.6595  -6.6588
 -6.6582  -6.6290  -6.6280  -6.6267  -1.2018  -1.1530  -1.0591  -1.0274
 -1.0068  -0.9567  -0.9142  -0.9026  -0.8120  -0.7719  -0.7207  -0.7032
 -0.6560  -0.6448  -0.6113  -0.5907  -0.5835  -0.5751  -0.5673  -0.5526
 -0.5398  -0.5347  -0.5166  -0.5133  -0.4868  -0.4672  -0.4560  -0.4419
 -0.3573  -0.3393  -0.3266  -0.2586

          Ground-State Mulliken Net Atomic Charges

     Atom                 Charge (a.u.)
  ----------------------------------------
      1 C                    -0.075363
      2 C                    -0.336121
      3 C                    -0.038640
      4 H                     0.177283
      5 C                     0.101413
      6 S                    -0.191656
      7 C                    -0.304650
      8 H                     0.118661
      9 H                     0.113968
     10 H                     0.113690
     11 C                    -0.048645
     12 C                    -0.277371
     13 C                     0.045387
     14 H                     0.184537
     15 C                    -0.247675
     16 S                     0.013789
     17 C                    -0.268728
     18 H                     0.102864
     19 H                     0.108273
     20 H                     0.107729
     21 H                     0.196087
     22 H                     0.111240
     23 H                     0.110907
     24 H                     0.183020
  ----------------------------------------
  Sum of atomic charges =     0.000000

                    Cartesian Multipole Moments
 -----------------------------------------------------------------
    Charge (ESU x 10^10)
                -0.0000
    Dipole Moment (Debye)
         X       0.0165      Y       0.1548      Z      -0.7360
       Tot       0.7523
    Quadrupole Moments (Debye-Ang)
        XX     -87.4330     XY       7.2430     YY     -78.5054
        XZ       0.4125     YZ       4.1018     ZZ     -85.2818

 Total job time:  671.45s(wall), 666.84s(cpu)
        *  Thank you very much for using Q-Chem.  Have a nice day.  *
