 Q-Chem 5.4, Q-Chem, Inc., Pleasanton, CA (2021)
 Q-Chem 5.4.0 for Intel X86 EM64T Linux

User input:
--------------------------------------------------------------
$molecule
0 1
C	-0.728138	-3.866725	-0.265779
C	0.575726	-3.703963	0.209225
C	1.002290	-2.357056	0.364875
H	1.224486	-4.561092	0.445176
C	0.000000	-1.440664	0.000000
S	-1.451343	-2.286957	-0.528236
C	2.369683	-1.978743	0.862808
H	2.975883	-2.878678	1.083368
H	2.317142	-1.376015	1.793522
H	2.927787	-1.375728	0.116375
C	0.000000	0.000000	0.000000
C	0.661577	0.555087	1.099446
C	1.721724	1.444630	0.776721
H	0.379056	0.318032	2.136088
C	1.890772	1.586449	-0.612546
S	0.721935	0.605744	-1.486809
C	2.555004	2.143805	1.814609
H	2.228946	1.870211	2.836676
H	2.482605	3.247987	1.726239
H	3.629830	1.880735	1.726228
H	2.617927	2.196579	-1.161575
H	-1.358585	-4.392713	0.459743
H	-0.744515	-4.392347	-1.227009
H	0.369490	-1.440391	-1.014829
$end

$rem
JOBTYPE		SP
EXCHANGE	HF
CORRELATION	pRIMP2
BASIS		cc-pvtz
METHOD		rimp2
AUX_BASIS	rimp2-cc-pvtz
SOLVENT_METHOD	PCM
PURECART	11111
SYMMETRY	false
MEM_TOTAL	110000
SCF_CONVERGENCE = 6
THRESH=10
$end

$solvent
dielectric 4.90
$end
--------------------------------------------------------------

             Standard Nuclear Orientation (Angstroms)
    I     Atom           X                Y                Z
 ----------------------------------------------------------------
    1      C      -0.7281380000    -3.8667250000    -0.2657790000
    2      C       0.5757260000    -3.7039630000     0.2092250000
    3      C       1.0022900000    -2.3570560000     0.3648750000
    4      H       1.2244860000    -4.5610920000     0.4451760000
    5      C       0.0000000000    -1.4406640000     0.0000000000
    6      S      -1.4513430000    -2.2869570000    -0.5282360000
    7      C       2.3696830000    -1.9787430000     0.8628080000
    8      H       2.9758830000    -2.8786780000     1.0833680000
    9      H       2.3171420000    -1.3760150000     1.7935220000
   10      H       2.9277870000    -1.3757280000     0.1163750000
   11      C       0.0000000000     0.0000000000     0.0000000000
   12      C       0.6615770000     0.5550870000     1.0994460000
   13      C       1.7217240000     1.4446300000     0.7767210000
   14      H       0.3790560000     0.3180320000     2.1360880000
   15      C       1.8907720000     1.5864490000    -0.6125460000
   16      S       0.7219350000     0.6057440000    -1.4868090000
   17      C       2.5550040000     2.1438050000     1.8146090000
   18      H       2.2289460000     1.8702110000     2.8366760000
   19      H       2.4826050000     3.2479870000     1.7262390000
   20      H       3.6298300000     1.8807350000     1.7262280000
   21      H       2.6179270000     2.1965790000    -1.1615750000
   22      H      -1.3585850000    -4.3927130000     0.4597430000
   23      H      -0.7445150000    -4.3923470000    -1.2270090000
   24      H       0.3694900000    -1.4403910000    -1.0148290000
 ----------------------------------------------------------------

   10   -1180.7016262550      7.81e-07  Convergence criterion met
 Total energy in the final basis set =    -1180.7016262550
        RIMP2         total energy =     -1182.7206690368 a.u.

                    Orbital Energies (a.u.)
 --------------------------------------------------------------

 Alpha MOs
 -- Occupied --
-91.9798 -91.9323 -11.2818 -11.2609 -11.2592 -11.2562 -11.2519 -11.2476
-11.2362 -11.2311 -11.2299 -11.2154  -8.9810  -8.9373  -6.6619  -6.6610
 -6.6606  -6.6187  -6.6177  -6.6164  -1.2040  -1.1537  -1.0600  -1.0253
 -1.0008  -0.9669  -0.9118  -0.9004  -0.8053  -0.7608  -0.7509  -0.7076
 -0.6492  -0.6304  -0.6143  -0.5881  -0.5777  -0.5761  -0.5681  -0.5548
 -0.5439  -0.5283  -0.5222  -0.5060  -0.4863  -0.4682  -0.4561  -0.4404
 -0.3521  -0.3446  -0.3186  -0.2676

          Ground-State Mulliken Net Atomic Charges

     Atom                 Charge (a.u.)
  ----------------------------------------
      1 C                    -0.073426
      2 C                    -0.334441
      3 C                    -0.039602
      4 H                     0.175016
      5 C                     0.101358
      6 S                    -0.212885
      7 C                    -0.298451
      8 H                     0.122341
      9 H                     0.107880
     10 H                     0.110419
     11 C                    -0.118218
     12 C                    -0.211762
     13 C                     0.027851
     14 H                     0.197516
     15 C                    -0.201555
     16 S                     0.005355
     17 C                    -0.272204
     18 H                     0.103722
     19 H                     0.114811
     20 H                     0.106164
     21 H                     0.201680
     22 H                     0.107624
     23 H                     0.105891
     24 H                     0.174915
  ----------------------------------------
  Sum of atomic charges =     0.000000

                    Cartesian Multipole Moments
 -----------------------------------------------------------------
    Charge (ESU x 10^10)
                -0.0000
    Dipole Moment (Debye)
         X       4.8066      Y       0.9773      Z       1.9036
       Tot       5.2614
    Quadrupole Moments (Debye-Ang)
        XX     -85.3451     XY       1.6923     YY     -81.6244
        XZ       0.6389     YZ       0.5848     ZZ     -85.2350

 Total job time:  710.62s(wall), 707.76s(cpu)
        *  Thank you very much for using Q-Chem.  Have a nice day.  *
