 Q-Chem 5.4, Q-Chem, Inc., Pleasanton, CA (2021)
 Q-Chem 5.4.0 for Intel X86 EM64T Linux

User input:
--------------------------------------------------------------
$molecule
0 1
C	-0.265779	-3.866725	0.728138
C	0.209225	-3.703963	-0.575726
C	0.364875	-2.357056	-1.002290
H	0.445176	-4.561092	-1.224486
C	-0.000000	-1.440664	-0.000000
S	-0.528236	-2.286957	1.451343
C	0.862808	-1.978743	-2.369683
H	1.083368	-2.878678	-2.975883
H	1.793522	-1.376015	-2.317142
H	0.116375	-1.375728	-2.927787
C	0.000000	0.000000	0.000000
C	0.365003	0.782674	1.099446
C	0.949885	2.036912	0.776721
H	0.209135	0.448431	2.136088
C	1.043159	2.236886	-0.612546
S	0.398297	0.854094	-1.486809
C	1.409609	3.022738	1.814609
H	1.229726	2.636980	2.836676
H	0.877346	3.992870	1.726239
H	2.494910	3.238558	1.726228
H	1.444334	3.097160	-1.161575
H	0.459743	-4.392713	1.358585
H	-1.227009	-4.392347	0.744515
H	1.014829	-1.440937	0.369490
$end

$rem
JOBTYPE		SP
EXCHANGE	HF
CORRELATION	pRIMP2
BASIS		cc-pvtz
METHOD		rimp2
AUX_BASIS	rimp2-cc-pvtz
SOLVENT_METHOD	PCM
PURECART	11111
SYMMETRY	false
MEM_TOTAL	110000
SCF_CONVERGENCE = 6
THRESH=10
$end

$solvent
dielectric 4.90
$end
--------------------------------------------------------------

             Standard Nuclear Orientation (Angstroms)
    I     Atom           X                Y                Z
 ----------------------------------------------------------------
    1      C      -0.2657790000    -3.8667250000     0.7281380000
    2      C       0.2092250000    -3.7039630000    -0.5757260000
    3      C       0.3648750000    -2.3570560000    -1.0022900000
    4      H       0.4451760000    -4.5610920000    -1.2244860000
    5      C       0.0000000000    -1.4406640000     0.0000000000
    6      S      -0.5282360000    -2.2869570000     1.4513430000
    7      C       0.8628080000    -1.9787430000    -2.3696830000
    8      H       1.0833680000    -2.8786780000    -2.9758830000
    9      H       1.7935220000    -1.3760150000    -2.3171420000
   10      H       0.1163750000    -1.3757280000    -2.9277870000
   11      C       0.0000000000     0.0000000000     0.0000000000
   12      C       0.3650030000     0.7826740000     1.0994460000
   13      C       0.9498850000     2.0369120000     0.7767210000
   14      H       0.2091350000     0.4484310000     2.1360880000
   15      C       1.0431590000     2.2368860000    -0.6125460000
   16      S       0.3982970000     0.8540940000    -1.4868090000
   17      C       1.4096090000     3.0227380000     1.8146090000
   18      H       1.2297260000     2.6369800000     2.8366760000
   19      H       0.8773460000     3.9928700000     1.7262390000
   20      H       2.4949100000     3.2385580000     1.7262280000
   21      H       1.4443340000     3.0971600000    -1.1615750000
   22      H       0.4597430000    -4.3927130000     1.3585850000
   23      H      -1.2270090000    -4.3923470000     0.7445150000
   24      H       1.0148290000    -1.4409370000     0.3694900000
 ----------------------------------------------------------------

   10   -1180.7428719550      5.02e-07  Convergence criterion met
 Total energy in the final basis set =    -1180.7428719550
        RIMP2         total energy =     -1182.7533929033 a.u.

                    Orbital Energies (a.u.)
 --------------------------------------------------------------

 Alpha MOs
 -- Occupied --
-91.9809 -91.9443 -11.2871 -11.2648 -11.2604 -11.2559 -11.2502 -11.2432
-11.2314 -11.2311 -11.2278 -11.2214  -8.9812  -8.9490  -6.6620  -6.6615
 -6.6608  -6.6304  -6.6294  -6.6281  -1.2032  -1.1521  -1.0606  -1.0277
 -1.0069  -0.9555  -0.9148  -0.9021  -0.8122  -0.7716  -0.7199  -0.7016
 -0.6633  -0.6464  -0.6111  -0.5874  -0.5825  -0.5728  -0.5684  -0.5540
 -0.5423  -0.5329  -0.5161  -0.5117  -0.4912  -0.4766  -0.4557  -0.4451
 -0.3573  -0.3412  -0.3251  -0.2634

          Ground-State Mulliken Net Atomic Charges

     Atom                 Charge (a.u.)
  ----------------------------------------
      1 C                    -0.074161
      2 C                    -0.318594
      3 C                    -0.043452
      4 H                     0.178699
      5 C                     0.079652
      6 S                    -0.185691
      7 C                    -0.298620
      8 H                     0.115906
      9 H                     0.114815
     10 H                     0.110153
     11 C                    -0.004669
     12 C                    -0.296454
     13 C                     0.039167
     14 H                     0.179646
     15 C                    -0.271797
     16 S                     0.010738
     17 C                    -0.270456
     18 H                     0.102810
     19 H                     0.108604
     20 H                     0.107148
     21 H                     0.196632
     22 H                     0.110914
     23 H                     0.113510
     24 H                     0.195501
  ----------------------------------------
  Sum of atomic charges =     0.000000

                    Cartesian Multipole Moments
 -----------------------------------------------------------------
    Charge (ESU x 10^10)
                -0.0000
    Dipole Moment (Debye)
         X       2.3188      Y      -0.3331      Z      -0.7259
       Tot       2.4525
    Quadrupole Moments (Debye-Ang)
        XX     -90.0366     XY       1.2427     YY     -75.6838
        XZ       0.5436     YZ       3.7245     ZZ     -85.3758

 Total job time:  663.22s(wall), 658.76s(cpu)
        *  Thank you very much for using Q-Chem.  Have a nice day.  *
