 Q-Chem 5.4, Q-Chem, Inc., Pleasanton, CA (2021)
 Q-Chem 5.4.0 for Intel X86 EM64T Linux

User input:
--------------------------------------------------------------
$molecule
0 1
C	0.671636	-3.866725	-0.386946
C	-0.530345	-3.703963	0.306544
C	-0.923770	-2.357056	0.533261
H	-1.128109	-4.561092	0.651857
C	0.000000	-1.440664	0.000000
S	1.337557	-2.286957	-0.772250
C	-2.184153	-1.978743	1.260680
H	-2.742769	-2.878678	1.583283
H	-2.863347	-1.376015	0.622180
H	-1.971094	-1.375728	2.168011
C	0.000000	0.000000	0.000000
C	0.661577	0.555087	1.099446
C	1.721724	1.444630	0.776721
H	0.379056	0.318032	2.136088
C	1.890772	1.586449	-0.612546
S	0.721935	0.605744	-1.486809
C	2.555004	2.143805	1.814609
H	2.228946	1.870211	2.836676
H	2.482605	3.247987	1.726239
H	3.629830	1.880735	1.726228
H	2.617927	2.196579	-1.161575
H	0.521098	-4.392713	-1.336254
H	1.418509	-4.392347	0.218374
H	0.539900	-1.440391	0.935365
$end

$rem
JOBTYPE		SP
EXCHANGE	HF
CORRELATION	pRIMP2
BASIS		cc-pvtz
METHOD		rimp2
AUX_BASIS	rimp2-cc-pvtz
SOLVENT_METHOD	PCM
PURECART	11111
SYMMETRY	false
MEM_TOTAL	110000
SCF_CONVERGENCE = 6
THRESH=10
$end

$solvent
dielectric 4.90
$end
--------------------------------------------------------------

             Standard Nuclear Orientation (Angstroms)
    I     Atom           X                Y                Z
 ----------------------------------------------------------------
    1      C       0.6716360000    -3.8667250000    -0.3869460000
    2      C      -0.5303450000    -3.7039630000     0.3065440000
    3      C      -0.9237700000    -2.3570560000     0.5332610000
    4      H      -1.1281090000    -4.5610920000     0.6518570000
    5      C       0.0000000000    -1.4406640000     0.0000000000
    6      S       1.3375570000    -2.2869570000    -0.7722500000
    7      C      -2.1841530000    -1.9787430000     1.2606800000
    8      H      -2.7427690000    -2.8786780000     1.5832830000
    9      H      -2.8633470000    -1.3760150000     0.6221800000
   10      H      -1.9710940000    -1.3757280000     2.1680110000
   11      C       0.0000000000     0.0000000000     0.0000000000
   12      C       0.6615770000     0.5550870000     1.0994460000
   13      C       1.7217240000     1.4446300000     0.7767210000
   14      H       0.3790560000     0.3180320000     2.1360880000
   15      C       1.8907720000     1.5864490000    -0.6125460000
   16      S       0.7219350000     0.6057440000    -1.4868090000
   17      C       2.5550040000     2.1438050000     1.8146090000
   18      H       2.2289460000     1.8702110000     2.8366760000
   19      H       2.4826050000     3.2479870000     1.7262390000
   20      H       3.6298300000     1.8807350000     1.7262280000
   21      H       2.6179270000     2.1965790000    -1.1615750000
   22      H       0.5210980000    -4.3927130000    -1.3362540000
   23      H       1.4185090000    -4.3923470000     0.2183740000
   24      H       0.5399000000    -1.4403910000     0.9353650000
 ----------------------------------------------------------------

   10   -1180.6999389505      9.02e-07  Convergence criterion met
 Total energy in the final basis set =    -1180.6999389505
        RIMP2         total energy =     -1182.7191909776 a.u.

                    Orbital Energies (a.u.)
 --------------------------------------------------------------

 Alpha MOs
 -- Occupied --
-91.9816 -91.9378 -11.2777 -11.2633 -11.2555 -11.2525 -11.2514 -11.2470
-11.2357 -11.2302 -11.2301 -11.2103  -8.9819  -8.9425  -6.6627  -6.6620
 -6.6617  -6.6238  -6.6227  -6.6214  -1.2035  -1.1525  -1.0577  -1.0269
 -1.0031  -0.9599  -0.9076  -0.9025  -0.8127  -0.7554  -0.7397  -0.6991
 -0.6604  -0.6389  -0.6097  -0.5883  -0.5829  -0.5712  -0.5630  -0.5516
 -0.5390  -0.5322  -0.5103  -0.5059  -0.4906  -0.4729  -0.4576  -0.4408
 -0.3563  -0.3357  -0.3185  -0.2638

          Ground-State Mulliken Net Atomic Charges

     Atom                 Charge (a.u.)
  ----------------------------------------
      1 C                    -0.084763
      2 C                    -0.340808
      3 C                    -0.050773
      4 H                     0.171859
      5 C                     0.066103
      6 S                    -0.173454
      7 C                    -0.274542
      8 H                     0.113248
      9 H                     0.107374
     10 H                     0.099375
     11 C                    -0.116711
     12 C                    -0.165096
     13 C                    -0.004148
     14 H                     0.187585
     15 C                    -0.200209
     16 S                     0.022887
     17 C                    -0.268559
     18 H                     0.101683
     19 H                     0.107915
     20 H                     0.107082
     21 H                     0.199491
     22 H                     0.108180
     23 H                     0.107295
     24 H                     0.178989
  ----------------------------------------
  Sum of atomic charges =     0.000000

                    Cartesian Multipole Moments
 -----------------------------------------------------------------
    Charge (ESU x 10^10)
                -0.0000
    Dipole Moment (Debye)
         X       0.4066      Y       0.9187      Z       3.2705
       Tot       3.4214
    Quadrupole Moments (Debye-Ang)
        XX     -84.5576     XY       8.0006     YY     -82.6000
        XZ       0.6890     YZ      -2.1444     ZZ     -85.4328

 Total job time:  673.02s(wall), 669.47s(cpu)
        *  Thank you very much for using Q-Chem.  Have a nice day.  *
