 Q-Chem 5.4, Q-Chem, Inc., Pleasanton, CA (2021)
 Q-Chem 5.4.0 for Intel X86 EM64T Linux

User input:
--------------------------------------------------------------
$molecule
0 1
C	0.763475	-3.866725	-0.133897
C	-0.603206	-3.703963	0.106669
C	-1.050446	-2.357056	0.185154
H	-1.283024	-4.561092	0.226709
C	-0.000000	-1.440664	-0.000000
S	1.521018	-2.286957	-0.268206
C	-2.483610	-1.978743	0.437628
H	-3.118875	-2.878678	0.549717
H	-2.903464	-1.376015	-0.394664
H	-2.593726	-1.375728	1.363110
C	0.000000	0.000000	0.000000
C	0.365003	0.782674	1.099446
C	0.949885	2.036912	0.776721
H	0.209135	0.448431	2.136088
C	1.043159	2.236886	-0.612546
S	0.398297	0.854094	-1.486809
C	1.409609	3.022738	1.814609
H	1.229726	2.636980	2.836676
H	0.877346	3.992870	1.726239
H	2.494910	3.238558	1.726228
H	1.444334	3.097160	-1.161575
H	0.946698	-4.392713	-1.077442
H	1.258274	-4.392347	0.690363
H	0.187427	-1.440391	1.063612
$end

$rem
JOBTYPE		SP
EXCHANGE	HF
CORRELATION	pRIMP2
BASIS		cc-pvtz
METHOD		rimp2
AUX_BASIS	rimp2-cc-pvtz
SOLVENT_METHOD	PCM
PURECART	11111
SYMMETRY	false
MEM_TOTAL	110000
SCF_CONVERGENCE = 6
THRESH=10
$end

$solvent
dielectric 4.90
$end
--------------------------------------------------------------

             Standard Nuclear Orientation (Angstroms)
    I     Atom           X                Y                Z
 ----------------------------------------------------------------
    1      C       0.7634750000    -3.8667250000    -0.1338970000
    2      C      -0.6032060000    -3.7039630000     0.1066690000
    3      C      -1.0504460000    -2.3570560000     0.1851540000
    4      H      -1.2830240000    -4.5610920000     0.2267090000
    5      C       0.0000000000    -1.4406640000     0.0000000000
    6      S       1.5210180000    -2.2869570000    -0.2682060000
    7      C      -2.4836100000    -1.9787430000     0.4376280000
    8      H      -3.1188750000    -2.8786780000     0.5497170000
    9      H      -2.9034640000    -1.3760150000    -0.3946640000
   10      H      -2.5937260000    -1.3757280000     1.3631100000
   11      C       0.0000000000     0.0000000000     0.0000000000
   12      C       0.3650030000     0.7826740000     1.0994460000
   13      C       0.9498850000     2.0369120000     0.7767210000
   14      H       0.2091350000     0.4484310000     2.1360880000
   15      C       1.0431590000     2.2368860000    -0.6125460000
   16      S       0.3982970000     0.8540940000    -1.4868090000
   17      C       1.4096090000     3.0227380000     1.8146090000
   18      H       1.2297260000     2.6369800000     2.8366760000
   19      H       0.8773460000     3.9928700000     1.7262390000
   20      H       2.4949100000     3.2385580000     1.7262280000
   21      H       1.4443340000     3.0971600000    -1.1615750000
   22      H       0.9466980000    -4.3927130000    -1.0774420000
   23      H       1.2582740000    -4.3923470000     0.6903630000
   24      H       0.1874270000    -1.4403910000     1.0636120000
 ----------------------------------------------------------------

   10   -1180.7519455419      5.35e-07  Convergence criterion met
 Total energy in the final basis set =    -1180.7519455419
        RIMP2         total energy =     -1182.7591240622 a.u.

                    Orbital Energies (a.u.)
 --------------------------------------------------------------

 Alpha MOs
 -- Occupied --
-91.9797 -91.9413 -11.2770 -11.2677 -11.2602 -11.2534 -11.2507 -11.2457
-11.2400 -11.2313 -11.2293 -11.2167  -8.9798  -8.9459  -6.6607  -6.6601
 -6.6596  -6.6272  -6.6262  -6.6250  -1.1984  -1.1535  -1.0576  -1.0263
 -1.0047  -0.9596  -0.9110  -0.9011  -0.8147  -0.7592  -0.7370  -0.7007
 -0.6605  -0.6403  -0.6102  -0.5887  -0.5814  -0.5709  -0.5650  -0.5503
 -0.5410  -0.5305  -0.5100  -0.5067  -0.4929  -0.4772  -0.4604  -0.4476
 -0.3572  -0.3385  -0.3129  -0.2798

          Ground-State Mulliken Net Atomic Charges

     Atom                 Charge (a.u.)
  ----------------------------------------
      1 C                    -0.073297
      2 C                    -0.328729
      3 C                    -0.034413
      4 H                     0.174791
      5 C                     0.061717
      6 S                    -0.168085
      7 C                    -0.269729
      8 H                     0.112850
      9 H                     0.107476
     10 H                     0.099714
     11 C                    -0.064189
     12 C                    -0.241068
     13 C                     0.028077
     14 H                     0.179869
     15 C                    -0.230668
     16 S                     0.008025
     17 C                    -0.270468
     18 H                     0.101861
     19 H                     0.107662
     20 H                     0.108520
     21 H                     0.196949
     22 H                     0.110786
     23 H                     0.109287
     24 H                     0.173061
  ----------------------------------------
  Sum of atomic charges =     0.000000

                    Cartesian Multipole Moments
 -----------------------------------------------------------------
    Charge (ESU x 10^10)
                -0.0000
    Dipole Moment (Debye)
         X      -1.3474      Y       0.6555      Z       2.6892
       Tot       3.0784
    Quadrupole Moments (Debye-Ang)
        XX     -89.6173     XY       7.3512     YY     -76.0062
        XZ       0.7150     YZ      -0.9513     ZZ     -86.0229

 Total job time:  646.67s(wall), 642.91s(cpu)
        *  Thank you very much for using Q-Chem.  Have a nice day.  *
