 Q-Chem 5.4, Q-Chem, Inc., Pleasanton, CA (2021)
 Q-Chem 5.4.0 for Intel X86 EM64T Linux

User input:
--------------------------------------------------------------
$molecule
0 1
C	0.670748	-3.808105	0.775127
C	0.642889	-3.647744	-0.612565
C	0.409365	-2.321236	-1.066639
H	0.791563	-4.491881	-1.302900
C	0.250169	-1.418777	0.000000
S	0.397135	-2.252211	1.544483
C	0.343896	-1.948630	-2.521872
H	0.500095	-2.834906	-3.166949
H	1.118228	-1.200068	-2.790821
H	-0.639561	-1.509723	-2.791023
C	0.000000	0.000000	0.000000
C	0.661577	0.555087	1.099446
C	1.721724	1.444630	0.776721
H	0.379056	0.318032	2.136088
C	1.890772	1.586449	-0.612546
S	0.721935	0.605744	-1.486809
C	2.555004	2.143805	1.814609
H	2.228946	1.870211	2.836676
H	2.482605	3.247987	1.726239
H	3.629830	1.880735	1.726228
H	2.617927	2.196579	-1.161575
H	1.645845	-4.170271	1.119411
H	-0.122001	-4.481618	1.119277
H	-0.813471	-1.606048	-0.000115
$end

$rem
JOBTYPE		SP
EXCHANGE	HF
CORRELATION	pRIMP2
BASIS		cc-pvtz
METHOD		rimp2
AUX_BASIS	rimp2-cc-pvtz
SOLVENT_METHOD	PCM
PURECART	11111
SYMMETRY	false
MEM_TOTAL	110000
SCF_CONVERGENCE = 6
THRESH=10
$end

$solvent
dielectric 4.90
$end
--------------------------------------------------------------

             Standard Nuclear Orientation (Angstroms)
    I     Atom           X                Y                Z
 ----------------------------------------------------------------
    1      C       0.6707480000    -3.8081050000     0.7751270000
    2      C       0.6428890000    -3.6477440000    -0.6125650000
    3      C       0.4093650000    -2.3212360000    -1.0666390000
    4      H       0.7915630000    -4.4918810000    -1.3029000000
    5      C       0.2501690000    -1.4187770000     0.0000000000
    6      S       0.3971350000    -2.2522110000     1.5444830000
    7      C       0.3438960000    -1.9486300000    -2.5218720000
    8      H       0.5000950000    -2.8349060000    -3.1669490000
    9      H       1.1182280000    -1.2000680000    -2.7908210000
   10      H      -0.6395610000    -1.5097230000    -2.7910230000
   11      C       0.0000000000     0.0000000000     0.0000000000
   12      C       0.6615770000     0.5550870000     1.0994460000
   13      C       1.7217240000     1.4446300000     0.7767210000
   14      H       0.3790560000     0.3180320000     2.1360880000
   15      C       1.8907720000     1.5864490000    -0.6125460000
   16      S       0.7219350000     0.6057440000    -1.4868090000
   17      C       2.5550040000     2.1438050000     1.8146090000
   18      H       2.2289460000     1.8702110000     2.8366760000
   19      H       2.4826050000     3.2479870000     1.7262390000
   20      H       3.6298300000     1.8807350000     1.7262280000
   21      H       2.6179270000     2.1965790000    -1.1615750000
   22      H       1.6458450000    -4.1702710000     1.1194110000
   23      H      -0.1220010000    -4.4816180000     1.1192770000
   24      H      -0.8134710000    -1.6060480000    -0.0001150000
 ----------------------------------------------------------------

   11   -1180.6530725944      6.64e-07  Convergence criterion met
 Total energy in the final basis set =    -1180.6530725944
        RIMP2         total energy =     -1182.6842993333 a.u.

                    Orbital Energies (a.u.)
 --------------------------------------------------------------

 Alpha MOs
 -- Occupied --
-91.9737 -91.9386 -11.2826 -11.2613 -11.2568 -11.2511 -11.2508 -11.2468
-11.2376 -11.2290 -11.2257 -11.2106  -8.9759  -8.9434  -6.6565  -6.6555
 -6.6552  -6.6248  -6.6238  -6.6225  -1.2051  -1.1527  -1.0589  -1.0280
 -1.0064  -0.9563  -0.9119  -0.9051  -0.8067  -0.7742  -0.7244  -0.7034
 -0.6504  -0.6435  -0.6143  -0.5927  -0.5867  -0.5744  -0.5672  -0.5505
 -0.5386  -0.5345  -0.5198  -0.5145  -0.4861  -0.4516  -0.4463  -0.4339
 -0.3553  -0.3333  -0.3278  -0.2513

          Ground-State Mulliken Net Atomic Charges

     Atom                 Charge (a.u.)
  ----------------------------------------
      1 C                    -0.075837
      2 C                    -0.354925
      3 C                    -0.040519
      4 H                     0.175287
      5 C                     0.077978
      6 S                    -0.211567
      7 C                    -0.292002
      8 H                     0.111896
      9 H                     0.118894
     10 H                     0.110151
     11 C                    -0.145719
     12 C                    -0.143316
     13 C                    -0.007880
     14 H                     0.192422
     15 C                    -0.193842
     16 S                     0.026049
     17 C                    -0.268276
     18 H                     0.103244
     19 H                     0.107379
     20 H                     0.105451
     21 H                     0.199124
     22 H                     0.108897
     23 H                     0.109362
     24 H                     0.187749
  ----------------------------------------
  Sum of atomic charges =     0.000000

                    Cartesian Multipole Moments
 -----------------------------------------------------------------
    Charge (ESU x 10^10)
                -0.0000
    Dipole Moment (Debye)
         X       1.6643      Y       0.8882      Z      -0.9579
       Tot       2.1157
    Quadrupole Moments (Debye-Ang)
        XX     -84.9662     XY       6.2768     YY     -82.0964
        XZ      -0.7006     YZ       3.9154     ZZ     -84.8674

 Total job time:  784.62s(wall), 779.49s(cpu)
        *  Thank you very much for using Q-Chem.  Have a nice day.  *
