 Q-Chem 5.4, Q-Chem, Inc., Pleasanton, CA (2021)
 Q-Chem 5.4.0 for Intel X86 EM64T Linux

User input:
--------------------------------------------------------------
$molecule
0 1
C	-0.388181	-3.866725	0.670924
C	0.306020	-3.703963	-0.530648
C	0.533378	-2.357056	-0.923703
H	0.651043	-4.561092	-1.128579
C	0.000000	-1.440664	0.000000
S	-0.772234	-2.286957	1.337567
C	1.261192	-1.978743	-2.183857
H	1.583666	-2.878678	-2.742548
H	2.168641	-1.376015	-1.970497
H	0.623012	-1.375728	-2.863099
C	0.000000	0.000000	0.000000
C	0.661577	0.555087	1.099446
C	1.721724	1.444630	0.776721
H	0.379056	0.318032	2.136088
C	1.890772	1.586449	-0.612546
S	0.721935	0.605744	-1.486809
C	2.555004	2.143805	1.814609
H	2.228946	1.870211	2.836676
H	2.482605	3.247987	1.726239
H	3.629830	1.880735	1.726228
H	2.617927	2.196579	-1.161575
H	0.216843	-4.392713	1.417779
H	-1.337652	-4.392347	0.520136
H	0.935250	-1.440937	0.540100
$end

$rem
JOBTYPE		SP
EXCHANGE	HF
CORRELATION	pRIMP2
BASIS		cc-pvtz
METHOD		rimp2
AUX_BASIS	rimp2-cc-pvtz
SOLVENT_METHOD	PCM
PURECART	11111
SYMMETRY	false
MEM_TOTAL	110000
SCF_CONVERGENCE = 6
THRESH=10
$end

$solvent
dielectric 4.90
$end
--------------------------------------------------------------

             Standard Nuclear Orientation (Angstroms)
    I     Atom           X                Y                Z
 ----------------------------------------------------------------
    1      C      -0.3881810000    -3.8667250000     0.6709240000
    2      C       0.3060200000    -3.7039630000    -0.5306480000
    3      C       0.5333780000    -2.3570560000    -0.9237030000
    4      H       0.6510430000    -4.5610920000    -1.1285790000
    5      C       0.0000000000    -1.4406640000     0.0000000000
    6      S      -0.7722340000    -2.2869570000     1.3375670000
    7      C       1.2611920000    -1.9787430000    -2.1838570000
    8      H       1.5836660000    -2.8786780000    -2.7425480000
    9      H       2.1686410000    -1.3760150000    -1.9704970000
   10      H       0.6230120000    -1.3757280000    -2.8630990000
   11      C       0.0000000000     0.0000000000     0.0000000000
   12      C       0.6615770000     0.5550870000     1.0994460000
   13      C       1.7217240000     1.4446300000     0.7767210000
   14      H       0.3790560000     0.3180320000     2.1360880000
   15      C       1.8907720000     1.5864490000    -0.6125460000
   16      S       0.7219350000     0.6057440000    -1.4868090000
   17      C       2.5550040000     2.1438050000     1.8146090000
   18      H       2.2289460000     1.8702110000     2.8366760000
   19      H       2.4826050000     3.2479870000     1.7262390000
   20      H       3.6298300000     1.8807350000     1.7262280000
   21      H       2.6179270000     2.1965790000    -1.1615750000
   22      H       0.2168430000    -4.3927130000     1.4177790000
   23      H      -1.3376520000    -4.3923470000     0.5201360000
   24      H       0.9352500000    -1.4409370000     0.5401000000
 ----------------------------------------------------------------

   11   -1180.6825181292      5.67e-07  Convergence criterion met
 Total energy in the final basis set =    -1180.6825181292
        RIMP2         total energy =     -1182.7098707973 a.u.

                    Orbital Energies (a.u.)
 --------------------------------------------------------------

 Alpha MOs
 -- Occupied --
-91.9802 -91.9380 -11.2718 -11.2699 -11.2620 -11.2536 -11.2518 -11.2411
-11.2396 -11.2294 -11.2274 -11.2157  -8.9814  -8.9429  -6.6620  -6.6613
 -6.6610  -6.6243  -6.6233  -6.6221  -1.2070  -1.1523  -1.0603  -1.0277
 -1.0077  -0.9549  -0.9116  -0.9050  -0.8053  -0.7715  -0.7275  -0.7002
 -0.6639  -0.6419  -0.6108  -0.5863  -0.5820  -0.5763  -0.5688  -0.5556
 -0.5422  -0.5302  -0.5179  -0.5172  -0.4917  -0.4602  -0.4480  -0.4405
 -0.3531  -0.3375  -0.3227  -0.2589

          Ground-State Mulliken Net Atomic Charges

     Atom                 Charge (a.u.)
  ----------------------------------------
      1 C                    -0.070402
      2 C                    -0.333261
      3 C                    -0.045706
      4 H                     0.176875
      5 C                     0.067639
      6 S                    -0.206184
      7 C                    -0.269414
      8 H                     0.107690
      9 H                     0.107450
     10 H                     0.108726
     11 C                    -0.087382
     12 C                    -0.199136
     13 C                     0.001206
     14 H                     0.187899
     15 C                    -0.236082
     16 S                     0.037220
     17 C                    -0.267627
     18 H                     0.103480
     19 H                     0.107681
     20 H                     0.104715
     21 H                     0.199643
     22 H                     0.108406
     23 H                     0.111228
     24 H                     0.185336
  ----------------------------------------
  Sum of atomic charges =     0.000000

                    Cartesian Multipole Moments
 -----------------------------------------------------------------
    Charge (ESU x 10^10)
                -0.0000
    Dipole Moment (Debye)
         X       3.7696      Y       0.2763      Z      -0.6440
       Tot       3.8342
    Quadrupole Moments (Debye-Ang)
        XX     -85.4770     XY       2.5903     YY     -81.8141
        XZ       0.5944     YZ       2.8247     ZZ     -84.8106

 Total job time:  755.38s(wall), 750.52s(cpu)
        *  Thank you very much for using Q-Chem.  Have a nice day.  *
