 Q-Chem 5.4, Q-Chem, Inc., Pleasanton, CA (2021)
 Q-Chem 5.4.0 for Intel X86 EM64T Linux

User input:
--------------------------------------------------------------
$molecule
0 1
C	-0.594240	-3.866725	0.497696
C	0.469057	-3.703963	-0.393981
C	0.817136	-2.357056	-0.685571
H	0.997777	-4.561092	-0.837848
C	0.000000	-1.440664	0.000000
S	-1.183137	-2.286957	0.992782
C	1.932056	-1.978743	-1.620802
H	2.426166	-2.878678	-2.035506
H	2.711806	-1.376015	-1.109943
H	1.564678	-1.375728	-2.477350
C	0.000000	0.000000	0.000000
C	0.661577	0.555087	1.099446
C	1.721724	1.444630	0.776721
H	0.379056	0.318032	2.136088
C	1.890772	1.586449	-0.612546
S	0.721935	0.605744	-1.486809
C	2.555004	2.143805	1.814609
H	2.228946	1.870211	2.836676
H	2.482605	3.247987	1.726239
H	3.629830	1.880735	1.726228
H	2.617927	2.196579	-1.161575
H	-0.281143	-4.392713	1.406441
H	-1.434879	-4.392347	0.031265
H	-0.694122	-1.440391	-0.827402
$end

$rem
JOBTYPE		SP
EXCHANGE	HF
CORRELATION	pRIMP2
BASIS		cc-pvtz
METHOD		rimp2
AUX_BASIS	rimp2-cc-pvtz
SOLVENT_METHOD	PCM
PURECART	11111
SYMMETRY	false
MEM_TOTAL	110000
SCF_CONVERGENCE = 6
THRESH=10
$end

$solvent
dielectric 4.90
$end
--------------------------------------------------------------

             Standard Nuclear Orientation (Angstroms)
    I     Atom           X                Y                Z
 ----------------------------------------------------------------
    1      C      -0.5942400000    -3.8667250000     0.4976960000
    2      C       0.4690570000    -3.7039630000    -0.3939810000
    3      C       0.8171360000    -2.3570560000    -0.6855710000
    4      H       0.9977770000    -4.5610920000    -0.8378480000
    5      C       0.0000000000    -1.4406640000     0.0000000000
    6      S      -1.1831370000    -2.2869570000     0.9927820000
    7      C       1.9320560000    -1.9787430000    -1.6208020000
    8      H       2.4261660000    -2.8786780000    -2.0355060000
    9      H       2.7118060000    -1.3760150000    -1.1099430000
   10      H       1.5646780000    -1.3757280000    -2.4773500000
   11      C       0.0000000000     0.0000000000     0.0000000000
   12      C       0.6615770000     0.5550870000     1.0994460000
   13      C       1.7217240000     1.4446300000     0.7767210000
   14      H       0.3790560000     0.3180320000     2.1360880000
   15      C       1.8907720000     1.5864490000    -0.6125460000
   16      S       0.7219350000     0.6057440000    -1.4868090000
   17      C       2.5550040000     2.1438050000     1.8146090000
   18      H       2.2289460000     1.8702110000     2.8366760000
   19      H       2.4826050000     3.2479870000     1.7262390000
   20      H       3.6298300000     1.8807350000     1.7262280000
   21      H       2.6179270000     2.1965790000    -1.1615750000
   22      H      -0.2811430000    -4.3927130000     1.4064410000
   23      H      -1.4348790000    -4.3923470000     0.0312650000
   24      H      -0.6941220000    -1.4403910000    -0.8274020000
 ----------------------------------------------------------------

   10   -1180.6911699240      9.16e-07  Convergence criterion met
 Total energy in the final basis set =    -1180.6911699240
        RIMP2         total energy =     -1182.7146532386 a.u.

                    Orbital Energies (a.u.)
 --------------------------------------------------------------

 Alpha MOs
 -- Occupied --
-91.9806 -91.9372 -11.2805 -11.2599 -11.2582 -11.2519 -11.2505 -11.2493
-11.2377 -11.2296 -11.2250 -11.2145  -8.9818  -8.9418  -6.6625  -6.6618
 -6.6615  -6.6232  -6.6222  -6.6210  -1.2017  -1.1535  -1.0591  -1.0225
 -1.0060  -0.9616  -0.9101  -0.9037  -0.8046  -0.7704  -0.7322  -0.7093
 -0.6503  -0.6319  -0.6129  -0.5924  -0.5811  -0.5729  -0.5696  -0.5520
 -0.5419  -0.5256  -0.5194  -0.5117  -0.4890  -0.4573  -0.4538  -0.4399
 -0.3516  -0.3381  -0.3191  -0.2675

          Ground-State Mulliken Net Atomic Charges

     Atom                 Charge (a.u.)
  ----------------------------------------
      1 C                    -0.067226
      2 C                    -0.338045
      3 C                    -0.039974
      4 H                     0.175656
      5 C                     0.063416
      6 S                    -0.202088
      7 C                    -0.278037
      8 H                     0.109586
      9 H                     0.113004
     10 H                     0.111061
     11 C                    -0.145096
     12 C                    -0.139659
     13 C                    -0.004554
     14 H                     0.190822
     15 C                    -0.202801
     16 S                     0.021826
     17 C                    -0.268674
     18 H                     0.103373
     19 H                     0.107366
     20 H                     0.104916
     21 H                     0.201169
     22 H                     0.108799
     23 H                     0.105908
     24 H                     0.169251
  ----------------------------------------
  Sum of atomic charges =     0.000000

                    Cartesian Multipole Moments
 -----------------------------------------------------------------
    Charge (ESU x 10^10)
                -0.0000
    Dipole Moment (Debye)
         X       3.6273      Y       0.8974      Z      -0.8252
       Tot       3.8267
    Quadrupole Moments (Debye-Ang)
        XX     -84.6834     XY       4.2347     YY     -81.8554
        XZ       0.3063     YZ       3.8693     ZZ     -85.4785

 Total job time:  696.12s(wall), 691.46s(cpu)
        *  Thank you very much for using Q-Chem.  Have a nice day.  *
