 Q-Chem 5.4, Q-Chem, Inc., Pleasanton, CA (2021)
 Q-Chem 5.4.0 for Intel X86 EM64T Linux

User input:
--------------------------------------------------------------
$molecule
0 1
C	-0.728625	-3.866725	0.264439
C	0.575519	-3.703963	-0.209794
C	1.002336	-2.357056	-0.364749
H	1.224165	-4.561092	-0.446060
C	-0.000000	-1.440664	-0.000000
S	-1.451336	-2.286957	0.528253
C	2.369885	-1.978743	-0.862253
H	2.976034	-2.878678	-1.082953
H	2.927887	-1.376015	-0.115513
H	2.317620	-1.375728	-1.792797
C	0.000000	0.000000	0.000000
C	0.555137	0.661535	1.099446
C	1.444710	1.721658	0.776721
H	0.318072	0.379023	2.136088
C	1.586563	1.890676	-0.612546
S	0.605781	0.721904	-1.486809
C	2.143920	2.554907	1.814609
H	1.870325	2.228851	2.836676
H	1.880882	3.629742	1.726239
H	3.248098	2.482476	1.726228
H	2.196723	2.617806	-1.161575
H	-0.745219	-4.392713	1.225465
H	-1.359038	-4.392347	-0.461378
H	-0.369273	-1.440391	-1.014907
$end

$rem
JOBTYPE		SP
EXCHANGE	HF
CORRELATION	pRIMP2
BASIS		cc-pvtz
METHOD		rimp2
AUX_BASIS	rimp2-cc-pvtz
SOLVENT_METHOD	PCM
PURECART	11111
SYMMETRY	false
MEM_TOTAL	110000
SCF_CONVERGENCE = 6
THRESH=10
$end

$solvent
dielectric 4.90
$end
--------------------------------------------------------------

             Standard Nuclear Orientation (Angstroms)
    I     Atom           X                Y                Z
 ----------------------------------------------------------------
    1      C      -0.7286250000    -3.8667250000     0.2644390000
    2      C       0.5755190000    -3.7039630000    -0.2097940000
    3      C       1.0023360000    -2.3570560000    -0.3647490000
    4      H       1.2241650000    -4.5610920000    -0.4460600000
    5      C       0.0000000000    -1.4406640000     0.0000000000
    6      S      -1.4513360000    -2.2869570000     0.5282530000
    7      C       2.3698850000    -1.9787430000    -0.8622530000
    8      H       2.9760340000    -2.8786780000    -1.0829530000
    9      H       2.9278870000    -1.3760150000    -0.1155130000
   10      H       2.3176200000    -1.3757280000    -1.7927970000
   11      C       0.0000000000     0.0000000000     0.0000000000
   12      C       0.5551370000     0.6615350000     1.0994460000
   13      C       1.4447100000     1.7216580000     0.7767210000
   14      H       0.3180720000     0.3790230000     2.1360880000
   15      C       1.5865630000     1.8906760000    -0.6125460000
   16      S       0.6057810000     0.7219040000    -1.4868090000
   17      C       2.1439200000     2.5549070000     1.8146090000
   18      H       1.8703250000     2.2288510000     2.8366760000
   19      H       1.8808820000     3.6297420000     1.7262390000
   20      H       3.2480980000     2.4824760000     1.7262280000
   21      H       2.1967230000     2.6178060000    -1.1615750000
   22      H      -0.7452190000    -4.3927130000     1.2254650000
   23      H      -1.3590380000    -4.3923470000    -0.4613780000
   24      H      -0.3692730000    -1.4403910000    -1.0149070000
 ----------------------------------------------------------------

   10   -1180.7239521902      7.11e-07  Convergence criterion met
 Total energy in the final basis set =    -1180.7239521902
        RIMP2         total energy =     -1182.7387602068 a.u.

                    Orbital Energies (a.u.)
 --------------------------------------------------------------

 Alpha MOs
 -- Occupied --
-91.9846 -91.9369 -11.2766 -11.2652 -11.2601 -11.2524 -11.2517 -11.2474
-11.2378 -11.2299 -11.2275 -11.2161  -8.9849  -8.9416  -6.6657  -6.6651
 -6.6646  -6.6230  -6.6219  -6.6207  -1.1996  -1.1541  -1.0588  -1.0222
 -1.0047  -0.9637  -0.9112  -0.9013  -0.8071  -0.7667  -0.7384  -0.7074
 -0.6510  -0.6305  -0.6124  -0.5879  -0.5780  -0.5734  -0.5707  -0.5531
 -0.5423  -0.5265  -0.5191  -0.5047  -0.4897  -0.4678  -0.4610  -0.4426
 -0.3520  -0.3433  -0.3157  -0.2749

          Ground-State Mulliken Net Atomic Charges

     Atom                 Charge (a.u.)
  ----------------------------------------
      1 C                    -0.071285
      2 C                    -0.333782
      3 C                    -0.026369
      4 H                     0.175264
      5 C                     0.070167
      6 S                    -0.195127
      7 C                    -0.283088
      8 H                     0.116285
      9 H                     0.110760
     10 H                     0.109069
     11 C                    -0.109996
     12 C                    -0.191248
     13 C                     0.013421
     14 H                     0.187520
     15 C                    -0.211291
     16 S                     0.012167
     17 C                    -0.269337
     18 H                     0.103452
     19 H                     0.108016
     20 H                     0.105841
     21 H                     0.200563
     22 H                     0.109087
     23 H                     0.106518
     24 H                     0.163394
  ----------------------------------------
  Sum of atomic charges =     0.000000

                    Cartesian Multipole Moments
 -----------------------------------------------------------------
    Charge (ESU x 10^10)
                -0.0000
    Dipole Moment (Debye)
         X       3.7495      Y       1.0482      Z      -0.0618
       Tot       3.8938
    Quadrupole Moments (Debye-Ang)
        XX     -87.0620     XY       2.8552     YY     -79.1250
        XZ       0.6393     YZ       3.2341     ZZ     -85.7134

 Total job time:  722.29s(wall), 718.60s(cpu)
        *  Thank you very much for using Q-Chem.  Have a nice day.  *
