 Q-Chem 5.4, Q-Chem, Inc., Pleasanton, CA (2021)
 Q-Chem 5.4.0 for Intel X86 EM64T Linux

User input:
--------------------------------------------------------------
$molecule
0 1
C	-0.135301	-3.866725	0.763228
C	0.106073	-3.703963	-0.603311
C	0.185286	-2.357056	-1.050423
H	0.225783	-4.561092	-1.283188
C	0.000000	-1.440664	0.000000
S	-0.268187	-2.286957	1.521021
C	0.438209	-1.978743	-2.483507
H	0.550153	-2.878678	-3.118798
H	1.363906	-1.376015	-2.593381
H	-0.393798	-1.375728	-2.903516
C	0.000000	0.000000	0.000000
C	0.000033	0.863600	1.099446
C	0.000052	2.247508	0.776721
H	0.000026	0.494801	2.136088
C	0.000074	2.468165	-0.612546
S	0.000024	0.942399	-1.486809
C	0.000075	3.335257	1.814609
H	0.000074	2.909620	2.836676
H	-0.892314	3.989552	1.726239
H	0.892483	3.989525	1.726228
H	0.000094	3.417382	-1.161575
H	0.688674	-4.392713	1.258111
H	-1.079084	-4.392347	0.946272
H	-1.063572	-1.440391	-0.187654
$end

$rem
JOBTYPE		SP
EXCHANGE	HF
CORRELATION	pRIMP2
BASIS		cc-pvtz
METHOD		rimp2
AUX_BASIS	rimp2-cc-pvtz
SOLVENT_METHOD	PCM
PURECART	11111
SYMMETRY	false
MEM_TOTAL	110000
SCF_CONVERGENCE = 6
THRESH=10
$end

$solvent
dielectric 4.90
$end
--------------------------------------------------------------

             Standard Nuclear Orientation (Angstroms)
    I     Atom           X                Y                Z
 ----------------------------------------------------------------
    1      C      -0.1353010000    -3.8667250000     0.7632280000
    2      C       0.1060730000    -3.7039630000    -0.6033110000
    3      C       0.1852860000    -2.3570560000    -1.0504230000
    4      H       0.2257830000    -4.5610920000    -1.2831880000
    5      C       0.0000000000    -1.4406640000     0.0000000000
    6      S      -0.2681870000    -2.2869570000     1.5210210000
    7      C       0.4382090000    -1.9787430000    -2.4835070000
    8      H       0.5501530000    -2.8786780000    -3.1187980000
    9      H       1.3639060000    -1.3760150000    -2.5933810000
   10      H      -0.3937980000    -1.3757280000    -2.9035160000
   11      C       0.0000000000     0.0000000000     0.0000000000
   12      C       0.0000330000     0.8636000000     1.0994460000
   13      C       0.0000520000     2.2475080000     0.7767210000
   14      H       0.0000260000     0.4948010000     2.1360880000
   15      C       0.0000740000     2.4681650000    -0.6125460000
   16      S       0.0000240000     0.9423990000    -1.4868090000
   17      C       0.0000750000     3.3352570000     1.8146090000
   18      H       0.0000740000     2.9096200000     2.8366760000
   19      H      -0.8923140000     3.9895520000     1.7262390000
   20      H       0.8924830000     3.9895250000     1.7262280000
   21      H       0.0000940000     3.4173820000    -1.1615750000
   22      H       0.6886740000    -4.3927130000     1.2581110000
   23      H      -1.0790840000    -4.3923470000     0.9462720000
   24      H      -1.0635720000    -1.4403910000    -0.1876540000
 ----------------------------------------------------------------

   10   -1180.7593733328      5.10e-07  Convergence criterion met
 Total energy in the final basis set =    -1180.7593733328
        RIMP2         total energy =     -1182.7646344974 a.u.

                    Orbital Energies (a.u.)
 --------------------------------------------------------------

 Alpha MOs
 -- Occupied --
-91.9813 -91.9470 -11.2908 -11.2664 -11.2627 -11.2532 -11.2497 -11.2445
-11.2331 -11.2303 -11.2273 -11.2236  -8.9814  -8.9515  -6.6624  -6.6618
 -6.6611  -6.6329  -6.6319  -6.6306  -1.2030  -1.1523  -1.0613  -1.0288
 -1.0066  -0.9568  -0.9168  -0.9015  -0.8152  -0.7726  -0.7179  -0.7050
 -0.6592  -0.6486  -0.6110  -0.5932  -0.5822  -0.5714  -0.5683  -0.5539
 -0.5424  -0.5344  -0.5162  -0.5094  -0.4875  -0.4868  -0.4584  -0.4454
 -0.3593  -0.3420  -0.3268  -0.2654

          Ground-State Mulliken Net Atomic Charges

     Atom                 Charge (a.u.)
  ----------------------------------------
      1 C                    -0.073232
      2 C                    -0.316302
      3 C                    -0.062805
      4 H                     0.179476
      5 C                     0.169050
      6 S                    -0.185392
      7 C                    -0.308186
      8 H                     0.121907
      9 H                     0.119303
     10 H                     0.107320
     11 C                    -0.043604
     12 C                    -0.309821
     13 C                     0.042767
     14 H                     0.178529
     15 C                    -0.279309
     16 S                     0.003509
     17 C                    -0.272728
     18 H                     0.102703
     19 H                     0.108511
     20 H                     0.108259
     21 H                     0.196535
     22 H                     0.112929
     23 H                     0.112558
     24 H                     0.188022
  ----------------------------------------
  Sum of atomic charges =     0.000000

                    Cartesian Multipole Moments
 -----------------------------------------------------------------
    Charge (ESU x 10^10)
                -0.0000
    Dipole Moment (Debye)
         X      -0.4238      Y      -0.5224      Z      -1.1987
       Tot       1.3746
    Quadrupole Moments (Debye-Ang)
        XX     -91.6884     XY       0.8589     YY     -72.8689
        XZ      -0.4185     YZ       4.9199     ZZ     -85.6584

 Total job time:  656.42s(wall), 650.58s(cpu)
        *  Thank you very much for using Q-Chem.  Have a nice day.  *
