 Q-Chem 5.4, Q-Chem, Inc., Pleasanton, CA (2021)
 Q-Chem 5.4.0 for Intel X86 EM64T Linux

User input:
--------------------------------------------------------------
$molecule
0 1
C	0.593324	-3.866725	0.498788
C	-0.469446	-3.703963	-0.393517
C	-0.817050	-2.357056	-0.685674
H	-0.998381	-4.561092	-0.837128
C	-0.000000	-1.440664	-0.000000
S	1.183149	-2.286957	0.992768
C	-1.931676	-1.978743	-1.621254
H	-2.425882	-2.878678	-2.035845
H	-1.563980	-1.376015	-2.477868
H	-2.711417	-1.375728	-1.110719
C	0.000000	0.000000	0.000000
C	0.431829	0.747884	1.099446
C	1.123799	1.946373	0.776721
H	0.247423	0.428497	2.136088
C	1.234147	2.137457	-0.612546
S	0.471221	0.816130	-1.486809
C	1.667694	2.888380	1.814609
H	1.454874	2.519768	2.836676
H	1.222009	3.901210	1.726239
H	2.767675	3.008788	1.726228
H	1.708773	2.959493	-1.161575
H	1.433894	-4.392713	0.032646
H	0.279954	-4.392347	1.407651
H	0.694299	-1.440937	-0.827254
$end

$rem
JOBTYPE		SP
EXCHANGE	HF
CORRELATION	pRIMP2
BASIS		cc-pvtz
METHOD		rimp2
AUX_BASIS	rimp2-cc-pvtz
SOLVENT_METHOD	PCM
PURECART	11111
SYMMETRY	false
MEM_TOTAL	110000
SCF_CONVERGENCE = 6
THRESH=10
$end

$solvent
dielectric 4.90
$end
--------------------------------------------------------------

   10   -1180.7430396419      5.25e-07  Convergence criterion met
 Total energy in the final basis set =    -1180.7430396419
        RIMP2         total energy =     -1182.7510761669 a.u.
 Total job time:  644.91s(wall), 640.77s(cpu)
        *  Thank you very much for using Q-Chem.  Have a nice day.  *
 Q-Chem 5.4, Q-Chem, Inc., Pleasanton, CA (2021)
 Q-Chem 5.4.0 for Intel X86 EM64T Linux

User input:
--------------------------------------------------------------
$molecule
0 1
C	0.593324	-3.866725	0.498788
C	-0.469446	-3.703963	-0.393517
C	-0.817050	-2.357056	-0.685674
H	-0.998381	-4.561092	-0.837128
C	-0.000000	-1.440664	-0.000000
S	1.183149	-2.286957	0.992768
C	-1.931676	-1.978743	-1.621254
H	-2.425882	-2.878678	-2.035845
H	-1.563980	-1.376015	-2.477868
H	-2.711417	-1.375728	-1.110719
C	0.000000	0.000000	0.000000
C	0.431829	0.747884	1.099446
C	1.123799	1.946373	0.776721
H	0.247423	0.428497	2.136088
C	1.234147	2.137457	-0.612546
S	0.471221	0.816130	-1.486809
C	1.667694	2.888380	1.814609
H	1.454874	2.519768	2.836676
H	1.222009	3.901210	1.726239
H	2.767675	3.008788	1.726228
H	1.708773	2.959493	-1.161575
H	1.433894	-4.392713	0.032646
H	0.279954	-4.392347	1.407651
H	0.694299	-1.440937	-0.827254
$end

$rem
JOBTYPE		SP
EXCHANGE	HF
CORRELATION	pRIMP2
BASIS		cc-pvtz
METHOD		rimp2
AUX_BASIS	rimp2-cc-pvtz
SOLVENT_METHOD	PCM
PURECART	11111
SYMMETRY	false
MEM_TOTAL	110000
SCF_CONVERGENCE = 6
THRESH=10
$end

$solvent
dielectric 4.90
$end
--------------------------------------------------------------

             Standard Nuclear Orientation (Angstroms)
    I     Atom           X                Y                Z
 ----------------------------------------------------------------
    1      C       0.5933240000    -3.8667250000     0.4987880000
    2      C      -0.4694460000    -3.7039630000    -0.3935170000
    3      C      -0.8170500000    -2.3570560000    -0.6856740000
    4      H      -0.9983810000    -4.5610920000    -0.8371280000
    5      C       0.0000000000    -1.4406640000     0.0000000000
    6      S       1.1831490000    -2.2869570000     0.9927680000
    7      C      -1.9316760000    -1.9787430000    -1.6212540000
    8      H      -2.4258820000    -2.8786780000    -2.0358450000
    9      H      -1.5639800000    -1.3760150000    -2.4778680000
   10      H      -2.7114170000    -1.3757280000    -1.1107190000
   11      C       0.0000000000     0.0000000000     0.0000000000
   12      C       0.4318290000     0.7478840000     1.0994460000
   13      C       1.1237990000     1.9463730000     0.7767210000
   14      H       0.2474230000     0.4284970000     2.1360880000
   15      C       1.2341470000     2.1374570000    -0.6125460000
   16      S       0.4712210000     0.8161300000    -1.4868090000
   17      C       1.6676940000     2.8883800000     1.8146090000
   18      H       1.4548740000     2.5197680000     2.8366760000
   19      H       1.2220090000     3.9012100000     1.7262390000
   20      H       2.7676750000     3.0087880000     1.7262280000
   21      H       1.7087730000     2.9594930000    -1.1615750000
   22      H       1.4338940000    -4.3927130000     0.0326460000
   23      H       0.2799540000    -4.3923470000     1.4076510000
   24      H       0.6942990000    -1.4409370000    -0.8272540000
 ----------------------------------------------------------------

   10   -1180.7430396419      5.25e-07  Convergence criterion met
 Total energy in the final basis set =    -1180.7430396419
        RIMP2         total energy =     -1182.7510761669 a.u.

                    Orbital Energies (a.u.)
 --------------------------------------------------------------

 Alpha MOs
 -- Occupied --
-91.9810 -91.9423 -11.2789 -11.2659 -11.2603 -11.2546 -11.2510 -11.2408
-11.2401 -11.2320 -11.2285 -11.2185  -8.9816  -8.9468  -6.6625  -6.6619
 -6.6613  -6.6282  -6.6272  -6.6259  -1.2012  -1.1534  -1.0596  -1.0263
 -1.0041  -0.9599  -0.9142  -0.9004  -0.8115  -0.7689  -0.7305  -0.7030
 -0.6543  -0.6384  -0.6114  -0.5902  -0.5768  -0.5754  -0.5686  -0.5530
 -0.5421  -0.5336  -0.5134  -0.5078  -0.4863  -0.4789  -0.4624  -0.4455
 -0.3549  -0.3439  -0.3218  -0.2692

          Ground-State Mulliken Net Atomic Charges

     Atom                 Charge (a.u.)
  ----------------------------------------
      1 C                    -0.076887
      2 C                    -0.322609
      3 C                    -0.048306
      4 H                     0.175027
      5 C                     0.095620
      6 S                    -0.180621
      7 C                    -0.276088
      8 H                     0.115028
      9 H                     0.101705
     10 H                     0.109857
     11 C                    -0.032284
     12 C                    -0.313730
     13 C                     0.059311
     14 H                     0.187822
     15 C                    -0.244709
     16 S                     0.005674
     17 C                    -0.269696
     18 H                     0.103118
     19 H                     0.108230
     20 H                     0.108476
     21 H                     0.197247
     22 H                     0.110357
     23 H                     0.108915
     24 H                     0.178544
  ----------------------------------------
  Sum of atomic charges =     0.000000

                    Cartesian Multipole Moments
 -----------------------------------------------------------------
    Charge (ESU x 10^10)
                -0.0000
    Dipole Moment (Debye)
         X      -0.3611      Y       0.3999      Z      -0.5421
       Tot       0.7643
    Quadrupole Moments (Debye-Ang)
        XX     -88.6196     XY       6.5128     YY     -76.5169
        XZ       0.5793     YZ       4.3557     ZZ     -86.0995

 Total job time:  645.52s(wall), 641.43s(cpu)
        *  Thank you very much for using Q-Chem.  Have a nice day.  *
