 Q-Chem 5.4, Q-Chem, Inc., Pleasanton, CA (2021)
 Q-Chem 5.4.0 for Intel X86 EM64T Linux

User input:
--------------------------------------------------------------
$molecule
0 1
C	-0.388181	-3.866725	0.670924
C	0.306020	-3.703963	-0.530648
C	0.533378	-2.357056	-0.923703
H	0.651043	-4.561092	-1.128579
C	0.000000	-1.440664	0.000000
S	-0.772234	-2.286957	1.337567
C	1.261192	-1.978743	-2.183857
H	1.583666	-2.878678	-2.742548
H	2.168641	-1.376015	-1.970497
H	0.623012	-1.375728	-2.863099
C	0.000000	0.000000	0.000000
C	0.747916	0.431772	1.099446
C	1.946425	1.123709	0.776721
H	0.428523	0.247378	2.136088
C	2.137531	1.234018	-0.612546
S	0.816154	0.471179	-1.486809
C	2.888455	1.667564	1.814609
H	2.519842	1.454746	2.836676
H	3.008896	2.767543	1.726239
H	3.901271	1.221850	1.726228
H	2.959587	1.708609	-1.161575
H	0.216843	-4.392713	1.417779
H	-1.337652	-4.392347	0.520136
H	0.935250	-1.440937	0.540100
$end

$rem
JOBTYPE		SP
EXCHANGE	HF
CORRELATION	pRIMP2
BASIS		cc-pvtz
METHOD		rimp2
AUX_BASIS	rimp2-cc-pvtz
SOLVENT_METHOD	PCM
PURECART	11111
SYMMETRY	false
MEM_TOTAL	110000
SCF_CONVERGENCE = 6
THRESH=10
$end

$solvent
dielectric 4.90
$end
--------------------------------------------------------------

             Standard Nuclear Orientation (Angstroms)
    I     Atom           X                Y                Z
 ----------------------------------------------------------------
    1      C      -0.3881810000    -3.8667250000     0.6709240000
    2      C       0.3060200000    -3.7039630000    -0.5306480000
    3      C       0.5333780000    -2.3570560000    -0.9237030000
    4      H       0.6510430000    -4.5610920000    -1.1285790000
    5      C       0.0000000000    -1.4406640000     0.0000000000
    6      S      -0.7722340000    -2.2869570000     1.3375670000
    7      C       1.2611920000    -1.9787430000    -2.1838570000
    8      H       1.5836660000    -2.8786780000    -2.7425480000
    9      H       2.1686410000    -1.3760150000    -1.9704970000
   10      H       0.6230120000    -1.3757280000    -2.8630990000
   11      C       0.0000000000     0.0000000000     0.0000000000
   12      C       0.7479160000     0.4317720000     1.0994460000
   13      C       1.9464250000     1.1237090000     0.7767210000
   14      H       0.4285230000     0.2473780000     2.1360880000
   15      C       2.1375310000     1.2340180000    -0.6125460000
   16      S       0.8161540000     0.4711790000    -1.4868090000
   17      C       2.8884550000     1.6675640000     1.8146090000
   18      H       2.5198420000     1.4547460000     2.8366760000
   19      H       3.0088960000     2.7675430000     1.7262390000
   20      H       3.9012710000     1.2218500000     1.7262280000
   21      H       2.9595870000     1.7086090000    -1.1615750000
   22      H       0.2168430000    -4.3927130000     1.4177790000
   23      H      -1.3376520000    -4.3923470000     0.5201360000
   24      H       0.9352500000    -1.4409370000     0.5401000000
 ----------------------------------------------------------------

   11   -1180.6416431615      7.65e-07  Convergence criterion met
 Total energy in the final basis set =    -1180.6416431615
        RIMP2         total energy =     -1182.6787946298 a.u.

                    Orbital Energies (a.u.)
 --------------------------------------------------------------

 Alpha MOs
 -- Occupied --
-91.9802 -91.9354 -11.2815 -11.2610 -11.2588 -11.2529 -11.2515 -11.2476
-11.2382 -11.2302 -11.2267 -11.2136  -8.9822  -8.9405  -6.6625  -6.6619
 -6.6615  -6.6219  -6.6209  -6.6197  -1.2123  -1.1521  -1.0613  -1.0316
 -1.0077  -0.9541  -0.9121  -0.9067  -0.8024  -0.7733  -0.7313  -0.7007
 -0.6656  -0.6410  -0.6110  -0.5900  -0.5810  -0.5786  -0.5690  -0.5586
 -0.5421  -0.5302  -0.5202  -0.5187  -0.4920  -0.4552  -0.4407  -0.4362
 -0.3517  -0.3332  -0.3230  -0.2565

          Ground-State Mulliken Net Atomic Charges

     Atom                 Charge (a.u.)
  ----------------------------------------
      1 C                    -0.069811
      2 C                    -0.339997
      3 C                    -0.050574
      4 H                     0.175863
      5 C                     0.075446
      6 S                    -0.215996
      7 C                    -0.253716
      8 H                     0.103502
      9 H                     0.102306
     10 H                     0.108878
     11 C                    -0.136568
     12 C                    -0.151951
     13 C                    -0.016636
     14 H                     0.192431
     15 C                    -0.220552
     16 S                     0.056852
     17 C                    -0.266828
     18 H                     0.104285
     19 H                     0.107588
     20 H                     0.103648
     21 H                     0.202548
     22 H                     0.107593
     23 H                     0.110785
     24 H                     0.170904
  ----------------------------------------
  Sum of atomic charges =     0.000000

                    Cartesian Multipole Moments
 -----------------------------------------------------------------
    Charge (ESU x 10^10)
                -0.0000
    Dipole Moment (Debye)
         X       4.4260      Y       0.3732      Z      -0.7848
       Tot       4.5105
    Quadrupole Moments (Debye-Ang)
        XX     -83.1388     XY       2.3729     YY     -84.4423
        XZ       0.4290     YZ       2.7051     ZZ     -84.3312

 Total job time:  780.63s(wall), 777.82s(cpu)
        *  Thank you very much for using Q-Chem.  Have a nice day.  *
