 Q-Chem 5.4, Q-Chem, Inc., Pleasanton, CA (2021)
 Q-Chem 5.4.0 for Intel X86 EM64T Linux

User input:
--------------------------------------------------------------
$molecule
0 1
C	-0.670924	-3.866725	-0.388181
C	0.530648	-3.703963	0.306020
C	0.923703	-2.357056	0.533378
H	1.128579	-4.561092	0.651043
C	0.000000	-1.440664	0.000000
S	-1.337567	-2.286957	-0.772234
C	2.183857	-1.978743	1.261192
H	2.742548	-2.878678	1.583666
H	1.970497	-1.376015	2.168641
H	2.863099	-1.375728	0.623012
C	0.000000	0.000000	0.000000
C	0.431829	0.747884	1.099446
C	1.123799	1.946373	0.776721
H	0.247423	0.428497	2.136088
C	1.234147	2.137457	-0.612546
S	0.471221	0.816130	-1.486809
C	1.667694	2.888380	1.814609
H	1.454874	2.519768	2.836676
H	1.222009	3.901210	1.726239
H	2.767675	3.008788	1.726228
H	1.708773	2.959493	-1.161575
H	-1.417779	-4.392713	0.216843
H	-0.520136	-4.392347	-1.337652
H	-0.540100	-1.440937	0.935250
$end

$rem
JOBTYPE		SP
EXCHANGE	HF
CORRELATION	pRIMP2
BASIS		cc-pvtz
METHOD		rimp2
AUX_BASIS	rimp2-cc-pvtz
SOLVENT_METHOD	PCM
PURECART	11111
SYMMETRY	false
MEM_TOTAL	110000
SCF_CONVERGENCE = 6
THRESH=10
$end

$solvent
dielectric 4.90
$end
--------------------------------------------------------------

             Standard Nuclear Orientation (Angstroms)
    I     Atom           X                Y                Z
 ----------------------------------------------------------------
    1      C      -0.6709240000    -3.8667250000    -0.3881810000
    2      C       0.5306480000    -3.7039630000     0.3060200000
    3      C       0.9237030000    -2.3570560000     0.5333780000
    4      H       1.1285790000    -4.5610920000     0.6510430000
    5      C       0.0000000000    -1.4406640000     0.0000000000
    6      S      -1.3375670000    -2.2869570000    -0.7722340000
    7      C       2.1838570000    -1.9787430000     1.2611920000
    8      H       2.7425480000    -2.8786780000     1.5836660000
    9      H       1.9704970000    -1.3760150000     2.1686410000
   10      H       2.8630990000    -1.3757280000     0.6230120000
   11      C       0.0000000000     0.0000000000     0.0000000000
   12      C       0.4318290000     0.7478840000     1.0994460000
   13      C       1.1237990000     1.9463730000     0.7767210000
   14      H       0.2474230000     0.4284970000     2.1360880000
   15      C       1.2341470000     2.1374570000    -0.6125460000
   16      S       0.4712210000     0.8161300000    -1.4868090000
   17      C       1.6676940000     2.8883800000     1.8146090000
   18      H       1.4548740000     2.5197680000     2.8366760000
   19      H       1.2220090000     3.9012100000     1.7262390000
   20      H       2.7676750000     3.0087880000     1.7262280000
   21      H       1.7087730000     2.9594930000    -1.1615750000
   22      H      -1.4177790000    -4.3927130000     0.2168430000
   23      H      -0.5201360000    -4.3923470000    -1.3376520000
   24      H      -0.5401000000    -1.4409370000     0.9352500000
 ----------------------------------------------------------------

   10   -1180.7457827260      5.96e-07  Convergence criterion met
 Total energy in the final basis set =    -1180.7457827260
        RIMP2         total energy =     -1182.7563936702 a.u.

                    Orbital Energies (a.u.)
 --------------------------------------------------------------

 Alpha MOs
 -- Occupied --
-91.9792 -91.9392 -11.2747 -11.2699 -11.2626 -11.2546 -11.2520 -11.2474
-11.2398 -11.2310 -11.2302 -11.2189  -8.9794  -8.9439  -6.6603  -6.6597
 -6.6592  -6.6253  -6.6243  -6.6231  -1.1991  -1.1541  -1.0582  -1.0264
 -1.0041  -0.9621  -0.9115  -0.9016  -0.8137  -0.7601  -0.7354  -0.7061
 -0.6574  -0.6414  -0.6112  -0.5907  -0.5836  -0.5720  -0.5622  -0.5536
 -0.5413  -0.5298  -0.5194  -0.5074  -0.4863  -0.4723  -0.4605  -0.4458
 -0.3540  -0.3420  -0.3174  -0.2759

          Ground-State Mulliken Net Atomic Charges

     Atom                 Charge (a.u.)
  ----------------------------------------
      1 C                    -0.074438
      2 C                    -0.323227
      3 C                    -0.044681
      4 H                     0.176961
      5 C                     0.081248
      6 S                    -0.182414
      7 C                    -0.272877
      8 H                     0.117431
      9 H                     0.097848
     10 H                     0.113957
     11 C                    -0.054858
     12 C                    -0.281644
     13 C                     0.041673
     14 H                     0.192877
     15 C                    -0.231530
     16 S                     0.005527
     17 C                    -0.270385
     18 H                     0.101925
     19 H                     0.109134
     20 H                     0.107765
     21 H                     0.198222
     22 H                     0.108733
     23 H                     0.109798
     24 H                     0.172954
  ----------------------------------------
  Sum of atomic charges =     0.000000

                    Cartesian Multipole Moments
 -----------------------------------------------------------------
    Charge (ESU x 10^10)
                -0.0000
    Dipole Moment (Debye)
         X       2.8109      Y       0.6372      Z       3.5275
       Tot       4.5553
    Quadrupole Moments (Debye-Ang)
        XX     -88.7615     XY       2.4090     YY     -76.3898
        XZ       0.4166     YZ      -2.1060     ZZ     -86.3000

 Total job time:  666.16s(wall), 662.11s(cpu)
        *  Thank you very much for using Q-Chem.  Have a nice day.  *
