 Q-Chem 5.4, Q-Chem, Inc., Pleasanton, CA (2021)
 Q-Chem 5.4.0 for Intel X86 EM64T Linux

User input:
--------------------------------------------------------------
$molecule
0 1
C	-0.671636	-3.866725	0.386946
C	0.530345	-3.703963	-0.306544
C	0.923770	-2.357056	-0.533261
H	1.128109	-4.561092	-0.651857
C	-0.000000	-1.440664	-0.000000
S	-1.337557	-2.286957	0.772250
C	2.184153	-1.978743	-1.260680
H	2.742769	-2.878678	-1.583283
H	2.863347	-1.376015	-0.622180
H	1.971094	-1.375728	-2.168011
C	0.000000	0.000000	0.000000
C	0.365003	0.782674	1.099446
C	0.949885	2.036912	0.776721
H	0.209135	0.448431	2.136088
C	1.043159	2.236886	-0.612546
S	0.398297	0.854094	-1.486809
C	1.409609	3.022738	1.814609
H	1.229726	2.636980	2.836676
H	0.877346	3.992870	1.726239
H	2.494910	3.238558	1.726228
H	1.444334	3.097160	-1.161575
H	-0.521098	-4.392713	1.336254
H	-1.418509	-4.392347	-0.218374
H	0.539900	-1.440937	0.935365
$end

$rem
JOBTYPE		SP
EXCHANGE	HF
CORRELATION	pRIMP2
BASIS		cc-pvtz
METHOD		rimp2
AUX_BASIS	rimp2-cc-pvtz
SOLVENT_METHOD	PCM
PURECART	11111
SYMMETRY	false
MEM_TOTAL	110000
SCF_CONVERGENCE = 6
THRESH=10
$end

$solvent
dielectric 4.90
$end
--------------------------------------------------------------

             Standard Nuclear Orientation (Angstroms)
    I     Atom           X                Y                Z
 ----------------------------------------------------------------
    1      C      -0.6716360000    -3.8667250000     0.3869460000
    2      C       0.5303450000    -3.7039630000    -0.3065440000
    3      C       0.9237700000    -2.3570560000    -0.5332610000
    4      H       1.1281090000    -4.5610920000    -0.6518570000
    5      C       0.0000000000    -1.4406640000     0.0000000000
    6      S      -1.3375570000    -2.2869570000     0.7722500000
    7      C       2.1841530000    -1.9787430000    -1.2606800000
    8      H       2.7427690000    -2.8786780000    -1.5832830000
    9      H       2.8633470000    -1.3760150000    -0.6221800000
   10      H       1.9710940000    -1.3757280000    -2.1680110000
   11      C       0.0000000000     0.0000000000     0.0000000000
   12      C       0.3650030000     0.7826740000     1.0994460000
   13      C       0.9498850000     2.0369120000     0.7767210000
   14      H       0.2091350000     0.4484310000     2.1360880000
   15      C       1.0431590000     2.2368860000    -0.6125460000
   16      S       0.3982970000     0.8540940000    -1.4868090000
   17      C       1.4096090000     3.0227380000     1.8146090000
   18      H       1.2297260000     2.6369800000     2.8366760000
   19      H       0.8773460000     3.9928700000     1.7262390000
   20      H       2.4949100000     3.2385580000     1.7262280000
   21      H       1.4443340000     3.0971600000    -1.1615750000
   22      H      -0.5210980000    -4.3927130000     1.3362540000
   23      H      -1.4185090000    -4.3923470000    -0.2183740000
   24      H       0.5399000000    -1.4409370000     0.9353650000
 ----------------------------------------------------------------

   10   -1180.7453223689      5.70e-07  Convergence criterion met
 Total energy in the final basis set =    -1180.7453223689
        RIMP2         total energy =     -1182.7552981776 a.u.

                    Orbital Energies (a.u.)
 --------------------------------------------------------------

 Alpha MOs
 -- Occupied --
-91.9820 -91.9391 -11.2799 -11.2648 -11.2633 -11.2542 -11.2513 -11.2418
-11.2401 -11.2296 -11.2294 -11.2189  -8.9820  -8.9440  -6.6629  -6.6623
 -6.6618  -6.6254  -6.6243  -6.6230  -1.1997  -1.1533  -1.0586  -1.0243
 -1.0078  -0.9583  -0.9114  -0.9019  -0.8119  -0.7657  -0.7327  -0.7003
 -0.6614  -0.6408  -0.6102  -0.5867  -0.5800  -0.5735  -0.5674  -0.5518
 -0.5422  -0.5300  -0.5165  -0.5059  -0.4932  -0.4740  -0.4584  -0.4468
 -0.3541  -0.3440  -0.3170  -0.2710

          Ground-State Mulliken Net Atomic Charges

     Atom                 Charge (a.u.)
  ----------------------------------------
      1 C                    -0.074189
      2 C                    -0.326778
      3 C                    -0.027183
      4 H                     0.176823
      5 C                     0.062448
      6 S                    -0.185791
      7 C                    -0.276341
      8 H                     0.114140
      9 H                     0.108528
     10 H                     0.110659
     11 C                    -0.051633
     12 C                    -0.252783
     13 C                     0.027000
     14 H                     0.182764
     15 C                    -0.241519
     16 S                     0.009085
     17 C                    -0.270484
     18 H                     0.102568
     19 H                     0.108404
     20 H                     0.107221
     21 H                     0.196613
     22 H                     0.109265
     23 H                     0.111069
     24 H                     0.180115
  ----------------------------------------
  Sum of atomic charges =     0.000000

                    Cartesian Multipole Moments
 -----------------------------------------------------------------
    Charge (ESU x 10^10)
                -0.0000
    Dipole Moment (Debye)
         X       3.3789      Y       0.4925      Z       0.8775
       Tot       3.5255
    Quadrupole Moments (Debye-Ang)
        XX     -90.2478     XY       0.1657     YY     -76.2740
        XZ       0.2611     YZ       1.6756     ZZ     -85.4826

 Total job time:  661.56s(wall), 657.08s(cpu)
        *  Thank you very much for using Q-Chem.  Have a nice day.  *
