 Q-Chem 5.4, Q-Chem, Inc., Pleasanton, CA (2021)
 Q-Chem 5.4.0 for Intel X86 EM64T Linux

User input:
--------------------------------------------------------------
$molecule
0 1
C	0.728625	-3.866725	-0.264439
C	-0.575519	-3.703963	0.209794
C	-1.002336	-2.357056	0.364749
H	-1.224165	-4.561092	0.446060
C	-0.000000	-1.440664	-0.000000
S	1.451336	-2.286957	-0.528253
C	-2.369885	-1.978743	0.862253
H	-2.976034	-2.878678	1.082953
H	-2.927887	-1.376015	0.115513
H	-2.317620	-1.375728	1.792797
C	0.000000	0.000000	0.000000
C	0.075300	0.860311	1.099446
C	0.195935	2.238951	0.776721
H	0.043151	0.492916	2.136088
C	0.215188	2.458766	-0.612546
S	0.082160	0.938811	-1.486809
C	0.290762	3.322559	1.814609
H	0.253664	2.898542	2.836676
H	-0.541206	4.052140	1.726239
H	1.236797	3.896558	1.726228
H	0.297938	3.404370	-1.161575
H	0.745219	-4.392713	-1.225465
H	1.359038	-4.392347	0.461378
H	0.369273	-1.440391	1.014907
$end

$rem
JOBTYPE		SP
EXCHANGE	HF
CORRELATION	pRIMP2
BASIS		cc-pvtz
METHOD		rimp2
AUX_BASIS	rimp2-cc-pvtz
SOLVENT_METHOD	PCM
PURECART	11111
SYMMETRY	false
MEM_TOTAL	110000
SCF_CONVERGENCE = 6
THRESH=10
$end

$solvent
dielectric 4.90
$end
--------------------------------------------------------------

             Standard Nuclear Orientation (Angstroms)
    I     Atom           X                Y                Z
 ----------------------------------------------------------------
    1      C       0.7286250000    -3.8667250000    -0.2644390000
    2      C      -0.5755190000    -3.7039630000     0.2097940000
    3      C      -1.0023360000    -2.3570560000     0.3647490000
    4      H      -1.2241650000    -4.5610920000     0.4460600000
    5      C       0.0000000000    -1.4406640000     0.0000000000
    6      S       1.4513360000    -2.2869570000    -0.5282530000
    7      C      -2.3698850000    -1.9787430000     0.8622530000
    8      H      -2.9760340000    -2.8786780000     1.0829530000
    9      H      -2.9278870000    -1.3760150000     0.1155130000
   10      H      -2.3176200000    -1.3757280000     1.7927970000
   11      C       0.0000000000     0.0000000000     0.0000000000
   12      C       0.0753000000     0.8603110000     1.0994460000
   13      C       0.1959350000     2.2389510000     0.7767210000
   14      H       0.0431510000     0.4929160000     2.1360880000
   15      C       0.2151880000     2.4587660000    -0.6125460000
   16      S       0.0821600000     0.9388110000    -1.4868090000
   17      C       0.2907620000     3.3225590000     1.8146090000
   18      H       0.2536640000     2.8985420000     2.8366760000
   19      H      -0.5412060000     4.0521400000     1.7262390000
   20      H       1.2367970000     3.8965580000     1.7262280000
   21      H       0.2979380000     3.4043700000    -1.1615750000
   22      H       0.7452190000    -4.3927130000    -1.2254650000
   23      H       1.3590380000    -4.3923470000     0.4613780000
   24      H       0.3692730000    -1.4403910000     1.0149070000
 ----------------------------------------------------------------

   10   -1180.7634661787      5.03e-07  Convergence criterion met
 Total energy in the final basis set =    -1180.7634661787
        RIMP2         total energy =     -1182.7679637887 a.u.

                    Orbital Energies (a.u.)
 --------------------------------------------------------------

 Alpha MOs
 -- Occupied --
-91.9807 -91.9424 -11.2826 -11.2633 -11.2629 -11.2560 -11.2507 -11.2422
-11.2412 -11.2319 -11.2292 -11.2192  -8.9806  -8.9470  -6.6616  -6.6610
 -6.6605  -6.6284  -6.6274  -6.6261  -1.1985  -1.1535  -1.0582  -1.0269
 -1.0047  -0.9605  -0.9120  -0.9009  -0.8161  -0.7602  -0.7345  -0.7032
 -0.6612  -0.6420  -0.6104  -0.5895  -0.5815  -0.5708  -0.5645  -0.5514
 -0.5419  -0.5302  -0.5136  -0.5062  -0.4912  -0.4817  -0.4613  -0.4480
 -0.3563  -0.3410  -0.3146  -0.2793

          Ground-State Mulliken Net Atomic Charges

     Atom                 Charge (a.u.)
  ----------------------------------------
      1 C                    -0.076218
      2 C                    -0.328695
      3 C                    -0.029150
      4 H                     0.176396
      5 C                     0.086846
      6 S                    -0.172679
      7 C                    -0.267018
      8 H                     0.114005
      9 H                     0.108786
     10 H                     0.099345
     11 C                    -0.079245
     12 C                    -0.243828
     13 C                     0.019324
     14 H                     0.182898
     15 C                    -0.239581
     16 S                     0.007450
     17 C                    -0.272344
     18 H                     0.101734
     19 H                     0.107968
     20 H                     0.108852
     21 H                     0.196477
     22 H                     0.111907
     23 H                     0.111700
     24 H                     0.175071
  ----------------------------------------
  Sum of atomic charges =     0.000000

                    Cartesian Multipole Moments
 -----------------------------------------------------------------
    Charge (ESU x 10^10)
                -0.0000
    Dipole Moment (Debye)
         X      -1.8418      Y       0.4583      Z       3.0487
       Tot       3.5912
    Quadrupole Moments (Debye-Ang)
        XX     -91.4030     XY       3.6997     YY     -73.7208
        XZ       0.2947     YZ      -1.3900     ZZ     -86.2500

 Total job time:  649.28s(wall), 645.86s(cpu)
        *  Thank you very much for using Q-Chem.  Have a nice day.  *
