 Q-Chem 5.4, Q-Chem, Inc., Pleasanton, CA (2021)
 Q-Chem 5.4.0 for Intel X86 EM64T Linux

User input:
--------------------------------------------------------------
$molecule
0 1
C	0.000713	-3.866725	-0.775127
C	0.000302	-3.703963	0.612565
C	-0.000067	-2.357056	1.066639
H	0.000470	-4.561092	1.302900
C	-0.000000	-1.440664	-0.000000
S	-0.000009	-2.286957	-1.544483
C	-0.000295	-1.978743	2.521872
H	-0.000221	-2.878678	3.166949
H	-0.892850	-1.376015	2.790821
H	0.892005	-1.375728	2.791023
C	0.000000	0.000000	0.000000
C	0.075300	0.860311	1.099446
C	0.195935	2.238951	0.776721
H	0.043151	0.492916	2.136088
C	0.215188	2.458766	-0.612546
S	0.082160	0.938811	-1.486809
C	0.290762	3.322559	1.814609
H	0.253664	2.898542	2.836676
H	-0.541206	4.052140	1.726239
H	1.236797	3.896558	1.726228
H	0.297938	3.404370	-1.161575
H	-0.896681	-4.392713	-1.119411
H	0.898372	-4.392347	-1.119277
H	-1.080000	-1.440937	-0.000115
$end

$rem
JOBTYPE		SP
EXCHANGE	HF
CORRELATION	pRIMP2
BASIS		cc-pvtz
METHOD		rimp2
AUX_BASIS	rimp2-cc-pvtz
SOLVENT_METHOD	PCM
PURECART	11111
SYMMETRY	false
MEM_TOTAL	110000
SCF_CONVERGENCE = 6
THRESH=10
$end

$solvent
dielectric 4.90
$end
--------------------------------------------------------------

             Standard Nuclear Orientation (Angstroms)
    I     Atom           X                Y                Z
 ----------------------------------------------------------------
    1      C       0.0007130000    -3.8667250000    -0.7751270000
    2      C       0.0003020000    -3.7039630000     0.6125650000
    3      C      -0.0000670000    -2.3570560000     1.0666390000
    4      H       0.0004700000    -4.5610920000     1.3029000000
    5      C       0.0000000000    -1.4406640000     0.0000000000
    6      S      -0.0000090000    -2.2869570000    -1.5444830000
    7      C      -0.0002950000    -1.9787430000     2.5218720000
    8      H      -0.0002210000    -2.8786780000     3.1669490000
    9      H      -0.8928500000    -1.3760150000     2.7908210000
   10      H       0.8920050000    -1.3757280000     2.7910230000
   11      C       0.0000000000     0.0000000000     0.0000000000
   12      C       0.0753000000     0.8603110000     1.0994460000
   13      C       0.1959350000     2.2389510000     0.7767210000
   14      H       0.0431510000     0.4929160000     2.1360880000
   15      C       0.2151880000     2.4587660000    -0.6125460000
   16      S       0.0821600000     0.9388110000    -1.4868090000
   17      C       0.2907620000     3.3225590000     1.8146090000
   18      H       0.2536640000     2.8985420000     2.8366760000
   19      H      -0.5412060000     4.0521400000     1.7262390000
   20      H       1.2367970000     3.8965580000     1.7262280000
   21      H       0.2979380000     3.4043700000    -1.1615750000
   22      H      -0.8966810000    -4.3927130000    -1.1194110000
   23      H       0.8983720000    -4.3923470000    -1.1192770000
   24      H      -1.0800000000    -1.4409370000    -0.0001150000
 ----------------------------------------------------------------

   10   -1180.7559944264      5.12e-07  Convergence criterion met
 Total energy in the final basis set =    -1180.7559944264
        RIMP2         total energy =     -1182.7618814294 a.u.

                    Orbital Energies (a.u.)
 --------------------------------------------------------------

 Alpha MOs
 -- Occupied --
-91.9840 -91.9467 -11.2905 -11.2670 -11.2622 -11.2527 -11.2496 -11.2450
-11.2345 -11.2279 -11.2275 -11.2243  -8.9836  -8.9514  -6.6646  -6.6640
 -6.6634  -6.6328  -6.6318  -6.6305  -1.2029  -1.1521  -1.0607  -1.0326
 -1.0012  -0.9616  -0.9168  -0.8993  -0.8188  -0.7638  -0.7279  -0.7059
 -0.6578  -0.6490  -0.6103  -0.5947  -0.5855  -0.5686  -0.5611  -0.5511
 -0.5460  -0.5362  -0.5242  -0.5011  -0.4866  -0.4818  -0.4701  -0.4431
 -0.3617  -0.3439  -0.3240  -0.2637

          Ground-State Mulliken Net Atomic Charges

     Atom                 Charge (a.u.)
  ----------------------------------------
      1 C                    -0.072075
      2 C                    -0.313542
      3 C                    -0.055178
      4 H                     0.179538
      5 C                     0.144596
      6 S                    -0.179830
      7 C                    -0.305284
      8 H                     0.123720
      9 H                     0.106157
     10 H                     0.110765
     11 C                    -0.066659
     12 C                    -0.270531
     13 C                     0.035229
     14 H                     0.189739
     15 C                    -0.285748
     16 S                     0.005445
     17 C                    -0.273209
     18 H                     0.100329
     19 H                     0.108364
     20 H                     0.108571
     21 H                     0.196813
     22 H                     0.111772
     23 H                     0.114144
     24 H                     0.186873
  ----------------------------------------
  Sum of atomic charges =     0.000000

                    Cartesian Multipole Moments
 -----------------------------------------------------------------
    Charge (ESU x 10^10)
                -0.0000
    Dipole Moment (Debye)
         X      -0.7756      Y      -0.5963      Z       3.7472
       Tot       3.8728
    Quadrupole Moments (Debye-Ang)
        XX     -91.7149     XY       2.3388     YY     -72.7578
        XZ       0.3498     YZ      -2.3299     ZZ     -85.6775

 Total job time:  664.76s(wall), 660.93s(cpu)
        *  Thank you very much for using Q-Chem.  Have a nice day.  *
