 Q-Chem 5.4, Q-Chem, Inc., Pleasanton, CA (2021)
 Q-Chem 5.4.0 for Intel X86 EM64T Linux

User input:
--------------------------------------------------------------
$molecule
0 1
C	0.594240	-3.866725	-0.497696
C	-0.469057	-3.703963	0.393981
C	-0.817136	-2.357056	0.685571
H	-0.997777	-4.561092	0.837848
C	0.000000	-1.440664	0.000000
S	1.183137	-2.286957	-0.992782
C	-1.932056	-1.978743	1.620802
H	-2.426166	-2.878678	2.035506
H	-2.711806	-1.376015	1.109943
H	-1.564678	-1.375728	2.477350
C	0.000000	0.000000	0.000000
C	0.223548	0.834165	1.099446
C	0.581748	2.170912	0.776721
H	0.128089	0.477934	2.136088
C	0.638880	2.384045	-0.612546
S	0.243934	0.910282	-1.486809
C	0.863301	3.221592	1.814609
H	0.753137	2.810458	2.836676
H	0.170663	4.084559	1.726239
H	1.894637	3.622593	1.726228
H	0.884575	3.300913	-1.161575
H	0.281143	-4.392713	-1.406441
H	1.434879	-4.392347	-0.031265
H	0.694122	-1.440391	0.827402
$end

$rem
JOBTYPE		SP
EXCHANGE	HF
CORRELATION	pRIMP2
BASIS		cc-pvtz
METHOD		rimp2
AUX_BASIS	rimp2-cc-pvtz
SOLVENT_METHOD	PCM
PURECART	11111
SYMMETRY	false
MEM_TOTAL	110000
SCF_CONVERGENCE = 6
THRESH=10
$end

$solvent
dielectric 4.90
$end
--------------------------------------------------------------

             Standard Nuclear Orientation (Angstroms)
    I     Atom           X                Y                Z
 ----------------------------------------------------------------
    1      C       0.5942400000    -3.8667250000    -0.4976960000
    2      C      -0.4690570000    -3.7039630000     0.3939810000
    3      C      -0.8171360000    -2.3570560000     0.6855710000
    4      H      -0.9977770000    -4.5610920000     0.8378480000
    5      C       0.0000000000    -1.4406640000     0.0000000000
    6      S       1.1831370000    -2.2869570000    -0.9927820000
    7      C      -1.9320560000    -1.9787430000     1.6208020000
    8      H      -2.4261660000    -2.8786780000     2.0355060000
    9      H      -2.7118060000    -1.3760150000     1.1099430000
   10      H      -1.5646780000    -1.3757280000     2.4773500000
   11      C       0.0000000000     0.0000000000     0.0000000000
   12      C       0.2235480000     0.8341650000     1.0994460000
   13      C       0.5817480000     2.1709120000     0.7767210000
   14      H       0.1280890000     0.4779340000     2.1360880000
   15      C       0.6388800000     2.3840450000    -0.6125460000
   16      S       0.2439340000     0.9102820000    -1.4868090000
   17      C       0.8633010000     3.2215920000     1.8146090000
   18      H       0.7531370000     2.8104580000     2.8366760000
   19      H       0.1706630000     4.0845590000     1.7262390000
   20      H       1.8946370000     3.6225930000     1.7262280000
   21      H       0.8845750000     3.3009130000    -1.1615750000
   22      H       0.2811430000    -4.3927130000    -1.4064410000
   23      H       1.4348790000    -4.3923470000    -0.0312650000
   24      H       0.6941220000    -1.4403910000     0.8274020000
 ----------------------------------------------------------------

   10   -1180.7563526722      5.02e-07  Convergence criterion met
 Total energy in the final basis set =    -1180.7563526722
        RIMP2         total energy =     -1182.7624036996 a.u.

                    Orbital Energies (a.u.)
 --------------------------------------------------------------

 Alpha MOs
 -- Occupied --
-91.9827 -91.9438 -11.2849 -11.2632 -11.2596 -11.2566 -11.2508 -11.2415
-11.2373 -11.2326 -11.2289 -11.2195  -8.9824  -8.9483  -6.6633  -6.6627
 -6.6622  -6.6297  -6.6287  -6.6274  -1.2000  -1.1529  -1.0588  -1.0287
 -1.0031  -0.9608  -0.9125  -0.9005  -0.8169  -0.7602  -0.7310  -0.7037
 -0.6616  -0.6439  -0.6102  -0.5896  -0.5834  -0.5701  -0.5622  -0.5530
 -0.5422  -0.5318  -0.5150  -0.5057  -0.4899  -0.4809  -0.4646  -0.4461
 -0.3562  -0.3426  -0.3196  -0.2706

          Ground-State Mulliken Net Atomic Charges

     Atom                 Charge (a.u.)
  ----------------------------------------
      1 C                    -0.075703
      2 C                    -0.324853
      3 C                    -0.042591
      4 H                     0.176124
      5 C                     0.078842
      6 S                    -0.172951
      7 C                    -0.272103
      8 H                     0.114979
      9 H                     0.110346
     10 H                     0.099479
     11 C                    -0.051763
     12 C                    -0.259049
     13 C                     0.025253
     14 H                     0.186603
     15 C                    -0.250671
     16 S                     0.007985
     17 C                    -0.272833
     18 H                     0.101260
     19 H                     0.108213
     20 H                     0.108604
     21 H                     0.196043
     22 H                     0.110658
     23 H                     0.111646
     24 H                     0.186484
  ----------------------------------------
  Sum of atomic charges =     0.000000

                    Cartesian Multipole Moments
 -----------------------------------------------------------------
    Charge (ESU x 10^10)
                -0.0000
    Dipole Moment (Debye)
         X      -0.8790      Y       0.1631      Z       3.5632
       Tot       3.6736
    Quadrupole Moments (Debye-Ang)
        XX     -90.6522     XY       4.2201     YY     -74.5290
        XZ       0.2650     YZ      -2.2432     ZZ     -86.1774

 Total job time:  641.78s(wall), 639.62s(cpu)
        *  Thank you very much for using Q-Chem.  Have a nice day.  *
