 Q-Chem 5.4, Q-Chem, Inc., Pleasanton, CA (2021)
 Q-Chem 5.4.0 for Intel X86 EM64T Linux

User input:
--------------------------------------------------------------
$molecule
0 1
C	0.728625	-3.866725	-0.264439
C	-0.575519	-3.703963	0.209794
C	-1.002336	-2.357056	0.364749
H	-1.224165	-4.561092	0.446060
C	-0.000000	-1.440664	-0.000000
S	1.451336	-2.286957	-0.528253
C	-2.369885	-1.978743	0.862253
H	-2.976034	-2.878678	1.082953
H	-2.927887	-1.376015	0.115513
H	-2.317620	-1.375728	1.792797
C	0.000000	0.000000	0.000000
C	0.075300	0.860311	1.099446
C	0.195935	2.238951	0.776721
H	0.043151	0.492916	2.136088
C	0.215188	2.458766	-0.612546
S	0.082160	0.938811	-1.486809
C	0.290762	3.322559	1.814609
H	0.253664	2.898542	2.836676
H	-0.541206	4.052140	1.726239
H	1.236797	3.896558	1.726228
H	0.297938	3.404370	-1.161575
H	0.745219	-4.392713	-1.225465
H	1.359038	-4.392347	0.461378
H	-0.369273	-1.440937	-1.014907
$end

$rem
JOBTYPE		SP
EXCHANGE	HF
CORRELATION	pRIMP2
BASIS		cc-pvtz
METHOD		rimp2
AUX_BASIS	rimp2-cc-pvtz
SOLVENT_METHOD	PCM
PURECART	11111
SYMMETRY	false
MEM_TOTAL	110000
SCF_CONVERGENCE = 6
THRESH=10
$end

$solvent
dielectric 4.90
$end
--------------------------------------------------------------

             Standard Nuclear Orientation (Angstroms)
    I     Atom           X                Y                Z
 ----------------------------------------------------------------
    1      C       0.7286250000    -3.8667250000    -0.2644390000
    2      C      -0.5755190000    -3.7039630000     0.2097940000
    3      C      -1.0023360000    -2.3570560000     0.3647490000
    4      H      -1.2241650000    -4.5610920000     0.4460600000
    5      C       0.0000000000    -1.4406640000     0.0000000000
    6      S       1.4513360000    -2.2869570000    -0.5282530000
    7      C      -2.3698850000    -1.9787430000     0.8622530000
    8      H      -2.9760340000    -2.8786780000     1.0829530000
    9      H      -2.9278870000    -1.3760150000     0.1155130000
   10      H      -2.3176200000    -1.3757280000     1.7927970000
   11      C       0.0000000000     0.0000000000     0.0000000000
   12      C       0.0753000000     0.8603110000     1.0994460000
   13      C       0.1959350000     2.2389510000     0.7767210000
   14      H       0.0431510000     0.4929160000     2.1360880000
   15      C       0.2151880000     2.4587660000    -0.6125460000
   16      S       0.0821600000     0.9388110000    -1.4868090000
   17      C       0.2907620000     3.3225590000     1.8146090000
   18      H       0.2536640000     2.8985420000     2.8366760000
   19      H      -0.5412060000     4.0521400000     1.7262390000
   20      H       1.2367970000     3.8965580000     1.7262280000
   21      H       0.2979380000     3.4043700000    -1.1615750000
   22      H       0.7452190000    -4.3927130000    -1.2254650000
   23      H       1.3590380000    -4.3923470000     0.4613780000
   24      H      -0.3692730000    -1.4409370000    -1.0149070000
 ----------------------------------------------------------------

   10   -1180.7597173324      5.12e-07  Convergence criterion met
 Total energy in the final basis set =    -1180.7597173324
        RIMP2         total energy =     -1182.7638281127 a.u.

                    Orbital Energies (a.u.)
 --------------------------------------------------------------

 Alpha MOs
 -- Occupied --
-91.9859 -91.9413 -11.2797 -11.2646 -11.2632 -11.2554 -11.2507 -11.2409
-11.2380 -11.2318 -11.2287 -11.2193  -8.9856  -8.9460  -6.6665  -6.6660
 -6.6654  -6.6274  -6.6263  -6.6251  -1.1983  -1.1535  -1.0586  -1.0272
 -1.0019  -0.9632  -0.9127  -0.9003  -0.8138  -0.7606  -0.7429  -0.7029
 -0.6539  -0.6349  -0.6107  -0.5880  -0.5782  -0.5710  -0.5679  -0.5544
 -0.5432  -0.5302  -0.5132  -0.5059  -0.4909  -0.4817  -0.4637  -0.4491
 -0.3565  -0.3410  -0.3147  -0.2789

          Ground-State Mulliken Net Atomic Charges

     Atom                 Charge (a.u.)
  ----------------------------------------
      1 C                    -0.077078
      2 C                    -0.329015
      3 C                    -0.021583
      4 H                     0.176704
      5 C                     0.111639
      6 S                    -0.176609
      7 C                    -0.266463
      8 H                     0.113425
      9 H                     0.103559
     10 H                     0.103782
     11 C                    -0.121213
     12 C                    -0.222103
     13 C                     0.016238
     14 H                     0.187813
     15 C                    -0.242885
     16 S                     0.014859
     17 C                    -0.272791
     18 H                     0.102490
     19 H                     0.107444
     20 H                     0.108647
     21 H                     0.198397
     22 H                     0.110713
     23 H                     0.113883
     24 H                     0.160146
  ----------------------------------------
  Sum of atomic charges =     0.000000

                    Cartesian Multipole Moments
 -----------------------------------------------------------------
    Charge (ESU x 10^10)
                -0.0000
    Dipole Moment (Debye)
         X      -2.3759      Y       0.6241      Z       1.5659
       Tot       2.9131
    Quadrupole Moments (Debye-Ang)
        XX     -91.8619     XY       4.8141     YY     -73.6056
        XZ      -0.1786     YZ       1.0067     ZZ     -85.7300

 Total job time:  651.13s(wall), 647.09s(cpu)
        *  Thank you very much for using Q-Chem.  Have a nice day.  *
