 Q-Chem 5.4, Q-Chem, Inc., Pleasanton, CA (2021)
 Q-Chem 5.4.0 for Intel X86 EM64T Linux

User input:
--------------------------------------------------------------
$molecule
0 1
C	-0.594240	-3.866725	0.497696
C	0.469057	-3.703963	-0.393981
C	0.817136	-2.357056	-0.685571
H	0.997777	-4.561092	-0.837848
C	-0.000000	-1.440664	-0.000000
S	-1.183137	-2.286957	0.992782
C	1.932056	-1.978743	-1.620802
H	2.426166	-2.878678	-2.035506
H	2.711806	-1.376015	-1.109943
H	1.564678	-1.375728	-2.477350
C	0.000000	0.000000	0.000000
C	0.075300	0.860311	1.099446
C	0.195935	2.238951	0.776721
H	0.043151	0.492916	2.136088
C	0.215188	2.458766	-0.612546
S	0.082160	0.938811	-1.486809
C	0.290762	3.322559	1.814609
H	0.253664	2.898542	2.836676
H	-0.541206	4.052140	1.726239
H	1.236797	3.896558	1.726228
H	0.297938	3.404370	-1.161575
H	-0.281143	-4.392713	1.406441
H	-1.434879	-4.392347	0.031265
H	-0.694122	-1.440391	-0.827402
$end

$rem
JOBTYPE		SP
EXCHANGE	HF
CORRELATION	pRIMP2
BASIS		cc-pvtz
METHOD		rimp2
AUX_BASIS	rimp2-cc-pvtz
SOLVENT_METHOD	PCM
PURECART	11111
SYMMETRY	false
MEM_TOTAL	110000
SCF_CONVERGENCE = 6
THRESH=10
$end

$solvent
dielectric 4.90
$end
--------------------------------------------------------------

             Standard Nuclear Orientation (Angstroms)
    I     Atom           X                Y                Z
 ----------------------------------------------------------------
    1      C      -0.5942400000    -3.8667250000     0.4976960000
    2      C       0.4690570000    -3.7039630000    -0.3939810000
    3      C       0.8171360000    -2.3570560000    -0.6855710000
    4      H       0.9977770000    -4.5610920000    -0.8378480000
    5      C       0.0000000000    -1.4406640000     0.0000000000
    6      S      -1.1831370000    -2.2869570000     0.9927820000
    7      C       1.9320560000    -1.9787430000    -1.6208020000
    8      H       2.4261660000    -2.8786780000    -2.0355060000
    9      H       2.7118060000    -1.3760150000    -1.1099430000
   10      H       1.5646780000    -1.3757280000    -2.4773500000
   11      C       0.0000000000     0.0000000000     0.0000000000
   12      C       0.0753000000     0.8603110000     1.0994460000
   13      C       0.1959350000     2.2389510000     0.7767210000
   14      H       0.0431510000     0.4929160000     2.1360880000
   15      C       0.2151880000     2.4587660000    -0.6125460000
   16      S       0.0821600000     0.9388110000    -1.4868090000
   17      C       0.2907620000     3.3225590000     1.8146090000
   18      H       0.2536640000     2.8985420000     2.8366760000
   19      H      -0.5412060000     4.0521400000     1.7262390000
   20      H       1.2367970000     3.8965580000     1.7262280000
   21      H       0.2979380000     3.4043700000    -1.1615750000
   22      H      -0.2811430000    -4.3927130000     1.4064410000
   23      H      -1.4348790000    -4.3923470000     0.0312650000
   24      H      -0.6941220000    -1.4403910000    -0.8274020000
 ----------------------------------------------------------------

   10   -1180.7591228038      4.93e-07  Convergence criterion met
 Total energy in the final basis set =    -1180.7591228038
        RIMP2         total energy =     -1182.7639900764 a.u.

                    Orbital Energies (a.u.)
 --------------------------------------------------------------

 Alpha MOs
 -- Occupied --
-91.9846 -91.9437 -11.2834 -11.2640 -11.2615 -11.2575 -11.2505 -11.2419
-11.2356 -11.2315 -11.2282 -11.2207  -8.9844  -8.9482  -6.6654  -6.6648
 -6.6642  -6.6295  -6.6285  -6.6272  -1.1997  -1.1532  -1.0597  -1.0260
 -1.0052  -0.9602  -0.9143  -0.9008  -0.8133  -0.7690  -0.7297  -0.7045
 -0.6550  -0.6389  -0.6106  -0.5914  -0.5769  -0.5738  -0.5694  -0.5534
 -0.5423  -0.5318  -0.5141  -0.5065  -0.4898  -0.4830  -0.4615  -0.4471
 -0.3561  -0.3429  -0.3199  -0.2733

          Ground-State Mulliken Net Atomic Charges

     Atom                 Charge (a.u.)
  ----------------------------------------
      1 C                    -0.076503
      2 C                    -0.324907
      3 C                    -0.045052
      4 H                     0.177373
      5 C                     0.130847
      6 S                    -0.176138
      7 C                    -0.276660
      8 H                     0.115542
      9 H                     0.113056
     10 H                     0.102629
     11 C                    -0.109652
     12 C                    -0.239658
     13 C                     0.022819
     14 H                     0.187367
     15 C                    -0.248271
     16 S                     0.007754
     17 C                    -0.272481
     18 H                     0.102992
     19 H                     0.108189
     20 H                     0.107924
     21 H                     0.197462
     22 H                     0.111927
     23 H                     0.112262
     24 H                     0.171180
  ----------------------------------------
  Sum of atomic charges =     0.000000

                    Cartesian Multipole Moments
 -----------------------------------------------------------------
    Charge (ESU x 10^10)
                -0.0000
    Dipole Moment (Debye)
         X       1.5113      Y       0.2998      Z      -0.7288
       Tot       1.7045
    Quadrupole Moments (Debye-Ang)
        XX     -91.3175     XY      -0.8110     YY     -73.4371
        XZ      -0.0404     YZ       4.4143     ZZ     -86.1886

 Total job time:  650.85s(wall), 647.25s(cpu)
        *  Thank you very much for using Q-Chem.  Have a nice day.  *
