 Q-Chem 5.4, Q-Chem, Inc., Pleasanton, CA (2021)
 Q-Chem 5.4.0 for Intel X86 EM64T Linux

User input:
--------------------------------------------------------------
$molecule
0 1
C	-0.728138	-3.866725	-0.265779
C	0.575726	-3.703963	0.209225
C	1.002290	-2.357056	0.364875
H	1.224486	-4.561092	0.445176
C	0.000000	-1.440664	0.000000
S	-1.451343	-2.286957	-0.528236
C	2.369683	-1.978743	0.862808
H	2.975883	-2.878678	1.083368
H	2.317142	-1.376015	1.793522
H	2.927787	-1.375728	0.116375
C	0.000000	0.000000	0.000000
C	0.747916	0.431772	1.099446
C	1.946425	1.123709	0.776721
H	0.428523	0.247378	2.136088
C	2.137531	1.234018	-0.612546
S	0.816154	0.471179	-1.486809
C	2.888455	1.667564	1.814609
H	2.519842	1.454746	2.836676
H	3.008896	2.767543	1.726239
H	3.901271	1.221850	1.726228
H	2.959587	1.708609	-1.161575
H	-1.358585	-4.392713	0.459743
H	-0.744515	-4.392347	-1.227009
H	0.369490	-1.440391	-1.014829
$end

$rem
JOBTYPE		SP
EXCHANGE	HF
CORRELATION	pRIMP2
BASIS		cc-pvtz
METHOD		rimp2
AUX_BASIS	rimp2-cc-pvtz
SOLVENT_METHOD	PCM
PURECART	11111
SYMMETRY	false
MEM_TOTAL	110000
SCF_CONVERGENCE = 6
THRESH=10
$end

$solvent
dielectric 4.90
$end
--------------------------------------------------------------

             Standard Nuclear Orientation (Angstroms)
    I     Atom           X                Y                Z
 ----------------------------------------------------------------
    1      C      -0.7281380000    -3.8667250000    -0.2657790000
    2      C       0.5757260000    -3.7039630000     0.2092250000
    3      C       1.0022900000    -2.3570560000     0.3648750000
    4      H       1.2244860000    -4.5610920000     0.4451760000
    5      C       0.0000000000    -1.4406640000     0.0000000000
    6      S      -1.4513430000    -2.2869570000    -0.5282360000
    7      C       2.3696830000    -1.9787430000     0.8628080000
    8      H       2.9758830000    -2.8786780000     1.0833680000
    9      H       2.3171420000    -1.3760150000     1.7935220000
   10      H       2.9277870000    -1.3757280000     0.1163750000
   11      C       0.0000000000     0.0000000000     0.0000000000
   12      C       0.7479160000     0.4317720000     1.0994460000
   13      C       1.9464250000     1.1237090000     0.7767210000
   14      H       0.4285230000     0.2473780000     2.1360880000
   15      C       2.1375310000     1.2340180000    -0.6125460000
   16      S       0.8161540000     0.4711790000    -1.4868090000
   17      C       2.8884550000     1.6675640000     1.8146090000
   18      H       2.5198420000     1.4547460000     2.8366760000
   19      H       3.0088960000     2.7675430000     1.7262390000
   20      H       3.9012710000     1.2218500000     1.7262280000
   21      H       2.9595870000     1.7086090000    -1.1615750000
   22      H      -1.3585850000    -4.3927130000     0.4597430000
   23      H      -0.7445150000    -4.3923470000    -1.2270090000
   24      H       0.3694900000    -1.4403910000    -1.0148290000
 ----------------------------------------------------------------

   10   -1180.6696033479      9.01e-07  Convergence criterion met
 Total energy in the final basis set =    -1180.6696033479
        RIMP2         total energy =     -1182.6960219062 a.u.

                    Orbital Energies (a.u.)
 --------------------------------------------------------------

 Alpha MOs
 -- Occupied --
-91.9779 -91.9299 -11.2886 -11.2650 -11.2577 -11.2525 -11.2519 -11.2446
-11.2347 -11.2321 -11.2289 -11.2140  -8.9797  -8.9350  -6.6605  -6.6595
 -6.6592  -6.6164  -6.6153  -6.6141  -1.2096  -1.1531  -1.0614  -1.0262
 -1.0010  -0.9682  -0.9126  -0.9000  -0.8031  -0.7628  -0.7538  -0.7098
 -0.6480  -0.6292  -0.6166  -0.5894  -0.5814  -0.5777  -0.5659  -0.5552
 -0.5441  -0.5279  -0.5239  -0.5065  -0.4850  -0.4693  -0.4497  -0.4354
 -0.3519  -0.3440  -0.3197  -0.2626

          Ground-State Mulliken Net Atomic Charges

     Atom                 Charge (a.u.)
  ----------------------------------------
      1 C                    -0.071844
      2 C                    -0.337798
      3 C                    -0.034649
      4 H                     0.174027
      5 C                     0.103216
      6 S                    -0.226002
      7 C                    -0.310973
      8 H                     0.124196
      9 H                     0.107713
     10 H                     0.114582
     11 C                    -0.172080
     12 C                    -0.134858
     13 C                    -0.010496
     14 H                     0.200513
     15 C                    -0.178365
     16 S                     0.001113
     17 C                    -0.276932
     18 H                     0.105884
     19 H                     0.121876
     20 H                     0.106365
     21 H                     0.203632
     22 H                     0.106397
     23 H                     0.105226
     24 H                     0.179255
  ----------------------------------------
  Sum of atomic charges =     0.000000

                    Cartesian Multipole Moments
 -----------------------------------------------------------------
    Charge (ESU x 10^10)
                -0.0000
    Dipole Moment (Debye)
         X       5.4580      Y       0.9195      Z       2.0371
       Tot       5.8979
    Quadrupole Moments (Debye-Ang)
        XX     -82.9916     XY       1.1482     YY     -84.2936
        XZ       0.5904     YZ       0.5840     ZZ     -84.9816

 Total job time:  747.78s(wall), 745.10s(cpu)
        *  Thank you very much for using Q-Chem.  Have a nice day.  *
