 Q-Chem 5.4, Q-Chem, Inc., Pleasanton, CA (2021)
 Q-Chem 5.4.0 for Intel X86 EM64T Linux

User input:
--------------------------------------------------------------
$molecule
0 1
C	-0.388181	-3.866725	0.670924
C	0.306020	-3.703963	-0.530648
C	0.533378	-2.357056	-0.923703
H	0.651043	-4.561092	-1.128579
C	0.000000	-1.440664	0.000000
S	-0.772234	-2.286957	1.337567
C	1.261192	-1.978743	-2.183857
H	1.583666	-2.878678	-2.742548
H	2.168641	-1.376015	-1.970497
H	0.623012	-1.375728	-2.863099
C	0.000000	0.000000	0.000000
C	0.295399	0.811508	1.099446
C	0.768742	2.111949	0.776721
H	0.169256	0.464952	2.136088
C	0.844232	2.319291	-0.612546
S	0.322342	0.885558	-1.486809
C	1.140796	3.134091	1.814609
H	0.995218	2.734123	2.836676
H	0.526006	4.054142	1.726239
H	2.203157	3.443680	1.726228
H	1.168902	3.211257	-1.161575
H	0.216843	-4.392713	1.417779
H	-1.337652	-4.392347	0.520136
H	-0.935250	-1.440391	-0.540100
$end

$rem
JOBTYPE		SP
EXCHANGE	HF
CORRELATION	pRIMP2
BASIS		cc-pvtz
METHOD		rimp2
AUX_BASIS	rimp2-cc-pvtz
SOLVENT_METHOD	PCM
PURECART	11111
SYMMETRY	false
MEM_TOTAL	110000
SCF_CONVERGENCE = 6
THRESH=10
$end

$solvent
dielectric 4.90
$end
--------------------------------------------------------------

             Standard Nuclear Orientation (Angstroms)
    I     Atom           X                Y                Z
 ----------------------------------------------------------------
    1      C      -0.3881810000    -3.8667250000     0.6709240000
    2      C       0.3060200000    -3.7039630000    -0.5306480000
    3      C       0.5333780000    -2.3570560000    -0.9237030000
    4      H       0.6510430000    -4.5610920000    -1.1285790000
    5      C       0.0000000000    -1.4406640000     0.0000000000
    6      S      -0.7722340000    -2.2869570000     1.3375670000
    7      C       1.2611920000    -1.9787430000    -2.1838570000
    8      H       1.5836660000    -2.8786780000    -2.7425480000
    9      H       2.1686410000    -1.3760150000    -1.9704970000
   10      H       0.6230120000    -1.3757280000    -2.8630990000
   11      C       0.0000000000     0.0000000000     0.0000000000
   12      C       0.2953990000     0.8115080000     1.0994460000
   13      C       0.7687420000     2.1119490000     0.7767210000
   14      H       0.1692560000     0.4649520000     2.1360880000
   15      C       0.8442320000     2.3192910000    -0.6125460000
   16      S       0.3223420000     0.8855580000    -1.4868090000
   17      C       1.1407960000     3.1340910000     1.8146090000
   18      H       0.9952180000     2.7341230000     2.8366760000
   19      H       0.5260060000     4.0541420000     1.7262390000
   20      H       2.2031570000     3.4436800000     1.7262280000
   21      H       1.1689020000     3.2112570000    -1.1615750000
   22      H       0.2168430000    -4.3927130000     1.4177790000
   23      H      -1.3376520000    -4.3923470000     0.5201360000
   24      H      -0.9352500000    -1.4403910000    -0.5401000000
 ----------------------------------------------------------------

   10   -1180.7456815154      5.16e-07  Convergence criterion met
 Total energy in the final basis set =    -1180.7456815154
        RIMP2         total energy =     -1182.7548277960 a.u.

                    Orbital Energies (a.u.)
 --------------------------------------------------------------

 Alpha MOs
 -- Occupied --
-91.9816 -91.9443 -11.2829 -11.2653 -11.2601 -11.2579 -11.2497 -11.2427
-11.2348 -11.2309 -11.2277 -11.2207  -8.9819  -8.9488  -6.6628  -6.6622
 -6.6616  -6.6302  -6.6292  -6.6280  -1.2008  -1.1526  -1.0600  -1.0263
 -1.0060  -0.9585  -0.9145  -0.9017  -0.8125  -0.7710  -0.7233  -0.7059
 -0.6547  -0.6427  -0.6106  -0.5933  -0.5800  -0.5723  -0.5688  -0.5522
 -0.5417  -0.5319  -0.5151  -0.5113  -0.4892  -0.4776  -0.4583  -0.4449
 -0.3569  -0.3413  -0.3237  -0.2668

          Ground-State Mulliken Net Atomic Charges

     Atom                 Charge (a.u.)
  ----------------------------------------
      1 C                    -0.071846
      2 C                    -0.325911
      3 C                    -0.043553
      4 H                     0.178212
      5 C                     0.108928
      6 S                    -0.183221
      7 C                    -0.290026
      8 H                     0.115680
      9 H                     0.119710
     10 H                     0.103326
     11 C                    -0.076600
     12 C                    -0.245415
     13 C                     0.022887
     14 H                     0.185288
     15 C                    -0.246870
     16 S                     0.000032
     17 C                    -0.271806
     18 H                     0.102756
     19 H                     0.108031
     20 H                     0.107385
     21 H                     0.197539
     22 H                     0.111973
     23 H                     0.112388
     24 H                     0.181113
  ----------------------------------------
  Sum of atomic charges =     0.000000

                    Cartesian Multipole Moments
 -----------------------------------------------------------------
    Charge (ESU x 10^10)
                -0.0000
    Dipole Moment (Debye)
         X       1.1295      Y       0.0472      Z      -1.1793
       Tot       1.6337
    Quadrupole Moments (Debye-Ang)
        XX     -90.2250     XY       2.8729     YY     -74.8222
        XZ      -0.0938     YZ       4.7072     ZZ     -85.9169

 Total job time:  674.37s(wall), 668.50s(cpu)
        *  Thank you very much for using Q-Chem.  Have a nice day.  *
