 Q-Chem 5.4, Q-Chem, Inc., Pleasanton, CA (2021)
 Q-Chem 5.4.0 for Intel X86 EM64T Linux

User input:
--------------------------------------------------------------
$molecule
0 1
C	0.497696	-3.866725	0.594240
C	-0.393981	-3.703963	-0.469057
C	-0.685571	-2.357056	-0.817136
H	-0.837848	-4.561092	-0.997777
C	-0.000000	-1.440664	-0.000000
S	0.992782	-2.286957	1.183137
C	-1.620802	-1.978743	-1.932056
H	-2.035506	-2.878678	-2.426166
H	-1.109943	-1.376015	-2.711806
H	-2.477350	-1.375728	-1.564678
C	0.000000	0.000000	0.000000
C	0.555137	0.661535	1.099446
C	1.444710	1.721658	0.776721
H	0.318072	0.379023	2.136088
C	1.586563	1.890676	-0.612546
S	0.605781	0.721904	-1.486809
C	2.143920	2.554907	1.814609
H	1.870325	2.228851	2.836676
H	1.880882	3.629742	1.726239
H	3.248098	2.482476	1.726228
H	2.196723	2.617806	-1.161575
H	1.406441	-4.392713	0.281143
H	0.031265	-4.392347	1.434879
H	0.827402	-1.440937	-0.694122
$end

$rem
JOBTYPE		SP
EXCHANGE	HF
CORRELATION	pRIMP2
BASIS		cc-pvtz
METHOD		rimp2
AUX_BASIS	rimp2-cc-pvtz
SOLVENT_METHOD	PCM
PURECART	11111
SYMMETRY	false
MEM_TOTAL	110000
SCF_CONVERGENCE = 6
THRESH=10
$end

$solvent
dielectric 4.90
$end
--------------------------------------------------------------

             Standard Nuclear Orientation (Angstroms)
    I     Atom           X                Y                Z
 ----------------------------------------------------------------
    1      C       0.4976960000    -3.8667250000     0.5942400000
    2      C      -0.3939810000    -3.7039630000    -0.4690570000
    3      C      -0.6855710000    -2.3570560000    -0.8171360000
    4      H      -0.8378480000    -4.5610920000    -0.9977770000
    5      C       0.0000000000    -1.4406640000     0.0000000000
    6      S       0.9927820000    -2.2869570000     1.1831370000
    7      C      -1.6208020000    -1.9787430000    -1.9320560000
    8      H      -2.0355060000    -2.8786780000    -2.4261660000
    9      H      -1.1099430000    -1.3760150000    -2.7118060000
   10      H      -2.4773500000    -1.3757280000    -1.5646780000
   11      C       0.0000000000     0.0000000000     0.0000000000
   12      C       0.5551370000     0.6615350000     1.0994460000
   13      C       1.4447100000     1.7216580000     0.7767210000
   14      H       0.3180720000     0.3790230000     2.1360880000
   15      C       1.5865630000     1.8906760000    -0.6125460000
   16      S       0.6057810000     0.7219040000    -1.4868090000
   17      C       2.1439200000     2.5549070000     1.8146090000
   18      H       1.8703250000     2.2288510000     2.8366760000
   19      H       1.8808820000     3.6297420000     1.7262390000
   20      H       3.2480980000     2.4824760000     1.7262280000
   21      H       2.1967230000     2.6178060000    -1.1615750000
   22      H       1.4064410000    -4.3927130000     0.2811430000
   23      H       0.0312650000    -4.3923470000     1.4348790000
   24      H       0.8274020000    -1.4409370000    -0.6941220000
 ----------------------------------------------------------------

   10   -1180.7282456612      5.74e-07  Convergence criterion met
 Total energy in the final basis set =    -1180.7282456612
        RIMP2         total energy =     -1182.7403109004 a.u.

                    Orbital Energies (a.u.)
 --------------------------------------------------------------

 Alpha MOs
 -- Occupied --
-91.9781 -91.9419 -11.2766 -11.2687 -11.2590 -11.2541 -11.2515 -11.2436
-11.2395 -11.2320 -11.2288 -11.2185  -8.9792  -8.9464  -6.6602  -6.6595
 -6.6589  -6.6278  -6.6267  -6.6255  -1.2037  -1.1535  -1.0603  -1.0265
 -1.0047  -0.9590  -0.9145  -0.9009  -0.8104  -0.7708  -0.7281  -0.7030
 -0.6545  -0.6407  -0.6122  -0.5904  -0.5781  -0.5759  -0.5689  -0.5526
 -0.5422  -0.5349  -0.5146  -0.5088  -0.4865  -0.4736  -0.4619  -0.4428
 -0.3553  -0.3444  -0.3250  -0.2642

          Ground-State Mulliken Net Atomic Charges

     Atom                 Charge (a.u.)
  ----------------------------------------
      1 C                    -0.079971
      2 C                    -0.318512
      3 C                    -0.060943
      4 H                     0.174979
      5 C                     0.103384
      6 S                    -0.185444
      7 C                    -0.283928
      8 H                     0.115987
      9 H                     0.105163
     10 H                     0.110679
     11 C                    -0.031009
     12 C                    -0.300405
     13 C                     0.050914
     14 H                     0.188708
     15 C                    -0.237921
     16 S                    -0.000416
     17 C                    -0.268291
     18 H                     0.103244
     19 H                     0.108758
     20 H                     0.108463
     21 H                     0.197448
     22 H                     0.110158
     23 H                     0.108638
     24 H                     0.180317
  ----------------------------------------
  Sum of atomic charges =     0.000000

                    Cartesian Multipole Moments
 -----------------------------------------------------------------
    Charge (ESU x 10^10)
                -0.0000
    Dipole Moment (Debye)
         X       0.3971      Y       0.2739      Z      -0.6745
       Tot       0.8293
    Quadrupole Moments (Debye-Ang)
        XX     -86.7245     XY       6.6911     YY     -78.2761
        XZ       0.8332     YZ       4.6224     ZZ     -86.0581

 Total job time:  655.44s(wall), 650.82s(cpu)
        *  Thank you very much for using Q-Chem.  Have a nice day.  *
