 Q-Chem 5.4, Q-Chem, Inc., Pleasanton, CA (2021)
 Q-Chem 5.4.0 for Intel X86 EM64T Linux

User input:
--------------------------------------------------------------
$molecule
0 1
C	-0.135301	-3.866725	0.763228
C	0.106073	-3.703963	-0.603311
C	0.185286	-2.357056	-1.050423
H	0.225783	-4.561092	-1.283188
C	-0.000000	-1.440664	-0.000000
S	-0.268187	-2.286957	1.521021
C	0.438209	-1.978743	-2.483507
H	0.550153	-2.878678	-3.118798
H	1.363906	-1.376015	-2.593381
H	-0.393798	-1.375728	-2.903516
C	0.000000	0.000000	0.000000
C	0.661577	0.555087	1.099446
C	1.721724	1.444630	0.776721
H	0.379056	0.318032	2.136088
C	1.890772	1.586449	-0.612546
S	0.721935	0.605744	-1.486809
C	2.555004	2.143805	1.814609
H	2.228946	1.870211	2.836676
H	2.482605	3.247987	1.726239
H	3.629830	1.880735	1.726228
H	2.617927	2.196579	-1.161575
H	0.688674	-4.392713	1.258111
H	-1.079084	-4.392347	0.946272
H	1.063572	-1.440937	0.187654
$end

$rem
JOBTYPE		SP
EXCHANGE	HF
CORRELATION	pRIMP2
BASIS		cc-pvtz
METHOD		rimp2
AUX_BASIS	rimp2-cc-pvtz
SOLVENT_METHOD	PCM
PURECART	11111
SYMMETRY	false
MEM_TOTAL	110000
SCF_CONVERGENCE = 6
THRESH=10
$end

$solvent
dielectric 4.90
$end
--------------------------------------------------------------

             Standard Nuclear Orientation (Angstroms)
    I     Atom           X                Y                Z
 ----------------------------------------------------------------
    1      C      -0.1353010000    -3.8667250000     0.7632280000
    2      C       0.1060730000    -3.7039630000    -0.6033110000
    3      C       0.1852860000    -2.3570560000    -1.0504230000
    4      H       0.2257830000    -4.5610920000    -1.2831880000
    5      C       0.0000000000    -1.4406640000     0.0000000000
    6      S      -0.2681870000    -2.2869570000     1.5210210000
    7      C       0.4382090000    -1.9787430000    -2.4835070000
    8      H       0.5501530000    -2.8786780000    -3.1187980000
    9      H       1.3639060000    -1.3760150000    -2.5933810000
   10      H      -0.3937980000    -1.3757280000    -2.9035160000
   11      C       0.0000000000     0.0000000000     0.0000000000
   12      C       0.6615770000     0.5550870000     1.0994460000
   13      C       1.7217240000     1.4446300000     0.7767210000
   14      H       0.3790560000     0.3180320000     2.1360880000
   15      C       1.8907720000     1.5864490000    -0.6125460000
   16      S       0.7219350000     0.6057440000    -1.4868090000
   17      C       2.5550040000     2.1438050000     1.8146090000
   18      H       2.2289460000     1.8702110000     2.8366760000
   19      H       2.4826050000     3.2479870000     1.7262390000
   20      H       3.6298300000     1.8807350000     1.7262280000
   21      H       2.6179270000     2.1965790000    -1.1615750000
   22      H       0.6886740000    -4.3927130000     1.2581110000
   23      H      -1.0790840000    -4.3923470000     0.9462720000
   24      H       1.0635720000    -1.4409370000     0.1876540000
 ----------------------------------------------------------------

   11   -1180.6929290523      5.00e-07  Convergence criterion met
 Total energy in the final basis set =    -1180.6929290523
        RIMP2         total energy =     -1182.7174953411 a.u.

                    Orbital Energies (a.u.)
 --------------------------------------------------------------

 Alpha MOs
 -- Occupied --
-91.9776 -91.9408 -11.2730 -11.2709 -11.2612 -11.2577 -11.2519 -11.2406
-11.2402 -11.2290 -11.2275 -11.2172  -8.9792  -8.9456  -6.6598  -6.6591
 -6.6587  -6.6270  -6.6260  -6.6248  -1.2082  -1.1527  -1.0612  -1.0285
 -1.0068  -0.9546  -0.9133  -0.9049  -0.8067  -0.7739  -0.7219  -0.7017
 -0.6632  -0.6452  -0.6123  -0.5865  -0.5858  -0.5734  -0.5699  -0.5535
 -0.5408  -0.5341  -0.5176  -0.5174  -0.4899  -0.4634  -0.4504  -0.4383
 -0.3553  -0.3375  -0.3269  -0.2599

          Ground-State Mulliken Net Atomic Charges

     Atom                 Charge (a.u.)
  ----------------------------------------
      1 C                    -0.074378
      2 C                    -0.326408
      3 C                    -0.047814
      4 H                     0.176807
      5 C                     0.088869
      6 S                    -0.206813
      7 C                    -0.285539
      8 H                     0.110558
      9 H                     0.112106
     10 H                     0.112332
     11 C                    -0.066162
     12 C                    -0.221197
     13 C                     0.012723
     14 H                     0.183319
     15 C                    -0.242156
     16 S                     0.027595
     17 C                    -0.267508
     18 H                     0.103695
     19 H                     0.108034
     20 H                     0.105561
     21 H                     0.198911
     22 H                     0.109658
     23 H                     0.112437
     24 H                     0.175370
  ----------------------------------------
  Sum of atomic charges =     0.000000

                    Cartesian Multipole Moments
 -----------------------------------------------------------------
    Charge (ESU x 10^10)
                -0.0000
    Dipole Moment (Debye)
         X       2.9508      Y       0.0429      Z      -1.0263
       Tot       3.1245
    Quadrupole Moments (Debye-Ang)
        XX     -85.2931     XY       3.5408     YY     -80.8324
        XZ       0.6976     YZ       3.6148     ZZ     -85.0772

 Total job time:  743.97s(wall), 739.16s(cpu)
        *  Thank you very much for using Q-Chem.  Have a nice day.  *
