 Q-Chem 5.4, Q-Chem, Inc., Pleasanton, CA (2021)
 Q-Chem 5.4.0 for Intel X86 EM64T Linux

User input:
--------------------------------------------------------------
$molecule
0 1
C	-0.498788	-3.866725	0.593324
C	0.393517	-3.703963	-0.469446
C	0.685674	-2.357056	-0.817050
H	0.837128	-4.561092	-0.998381
C	0.000000	-1.440664	0.000000
S	-0.992768	-2.286957	1.183149
C	1.621254	-1.978743	-1.931676
H	2.035845	-2.878678	-2.425882
H	2.477868	-1.376015	-1.563980
H	1.110719	-1.375728	-2.711417
C	0.000000	0.000000	0.000000
C	0.431829	0.747884	1.099446
C	1.123799	1.946373	0.776721
H	0.247423	0.428497	2.136088
C	1.234147	2.137457	-0.612546
S	0.471221	0.816130	-1.486809
C	1.667694	2.888380	1.814609
H	1.454874	2.519768	2.836676
H	1.222009	3.901210	1.726239
H	2.767675	3.008788	1.726228
H	1.708773	2.959493	-1.161575
H	-0.032646	-4.392713	1.433894
H	-1.407651	-4.392347	0.279954
H	-0.827254	-1.440391	-0.694299
$end

$rem
JOBTYPE		SP
EXCHANGE	HF
CORRELATION	pRIMP2
BASIS		cc-pvtz
METHOD		rimp2
AUX_BASIS	rimp2-cc-pvtz
SOLVENT_METHOD	PCM
PURECART	11111
SYMMETRY	false
MEM_TOTAL	110000
SCF_CONVERGENCE = 6
THRESH=10
$end

$solvent
dielectric 4.90
$end
--------------------------------------------------------------

             Standard Nuclear Orientation (Angstroms)
    I     Atom           X                Y                Z
 ----------------------------------------------------------------
    1      C      -0.4987880000    -3.8667250000     0.5933240000
    2      C       0.3935170000    -3.7039630000    -0.4694460000
    3      C       0.6856740000    -2.3570560000    -0.8170500000
    4      H       0.8371280000    -4.5610920000    -0.9983810000
    5      C       0.0000000000    -1.4406640000     0.0000000000
    6      S      -0.9927680000    -2.2869570000     1.1831490000
    7      C       1.6212540000    -1.9787430000    -1.9316760000
    8      H       2.0358450000    -2.8786780000    -2.4258820000
    9      H       2.4778680000    -1.3760150000    -1.5639800000
   10      H       1.1107190000    -1.3757280000    -2.7114170000
   11      C       0.0000000000     0.0000000000     0.0000000000
   12      C       0.4318290000     0.7478840000     1.0994460000
   13      C       1.1237990000     1.9463730000     0.7767210000
   14      H       0.2474230000     0.4284970000     2.1360880000
   15      C       1.2341470000     2.1374570000    -0.6125460000
   16      S       0.4712210000     0.8161300000    -1.4868090000
   17      C       1.6676940000     2.8883800000     1.8146090000
   18      H       1.4548740000     2.5197680000     2.8366760000
   19      H       1.2220090000     3.9012100000     1.7262390000
   20      H       2.7676750000     3.0087880000     1.7262280000
   21      H       1.7087730000     2.9594930000    -1.1615750000
   22      H      -0.0326460000    -4.3927130000     1.4338940000
   23      H      -1.4076510000    -4.3923470000     0.2799540000
   24      H      -0.8272540000    -1.4403910000    -0.6942990000
 ----------------------------------------------------------------

   10   -1180.7327425570      6.11e-07  Convergence criterion met
 Total energy in the final basis set =    -1180.7327425570
        RIMP2         total energy =     -1182.7456254307 a.u.

                    Orbital Energies (a.u.)
 --------------------------------------------------------------

 Alpha MOs
 -- Occupied --
-91.9819 -91.9420 -11.2757 -11.2664 -11.2637 -11.2549 -11.2502 -11.2410
-11.2388 -11.2289 -11.2282 -11.2185  -8.9823  -8.9465  -6.6631  -6.6626
 -6.6620  -6.6279  -6.6270  -6.6257  -1.1999  -1.1530  -1.0592  -1.0245
 -1.0057  -0.9598  -0.9127  -0.9021  -0.8101  -0.7701  -0.7270  -0.7067
 -0.6527  -0.6383  -0.6109  -0.5924  -0.5789  -0.5730  -0.5693  -0.5517
 -0.5416  -0.5297  -0.5157  -0.5114  -0.4894  -0.4710  -0.4582  -0.4440
 -0.3550  -0.3407  -0.3212  -0.2680

          Ground-State Mulliken Net Atomic Charges

     Atom                 Charge (a.u.)
  ----------------------------------------
      1 C                    -0.069640
      2 C                    -0.330459
      3 C                    -0.036005
      4 H                     0.177410
      5 C                     0.071498
      6 S                    -0.185412
      7 C                    -0.279750
      8 H                     0.112645
      9 H                     0.117513
     10 H                     0.103943
     11 C                    -0.092951
     12 C                    -0.213300
     13 C                     0.016106
     14 H                     0.187574
     15 C                    -0.230073
     16 S                     0.004667
     17 C                    -0.270657
     18 H                     0.102894
     19 H                     0.107682
     20 H                     0.106590
     21 H                     0.198416
     22 H                     0.111034
     23 H                     0.110219
     24 H                     0.180056
  ----------------------------------------
  Sum of atomic charges =     0.000000

                    Cartesian Multipole Moments
 -----------------------------------------------------------------
    Charge (ESU x 10^10)
                -0.0000
    Dipole Moment (Debye)
         X       2.0357      Y       0.4429      Z      -1.0348
       Tot       2.3262
    Quadrupole Moments (Debye-Ang)
        XX     -88.7292     XY       3.5991     YY     -76.8001
        XZ       0.1242     YZ       4.3684     ZZ     -85.9242

 Total job time:  661.51s(wall), 656.93s(cpu)
        *  Thank you very much for using Q-Chem.  Have a nice day.  *
