 Q-Chem 5.4, Q-Chem, Inc., Pleasanton, CA (2021)
 Q-Chem 5.4.0 for Intel X86 EM64T Linux

User input:
--------------------------------------------------------------
$molecule
0 1
C	-0.135301	-3.866725	0.763228
C	0.106073	-3.703963	-0.603311
C	0.185286	-2.357056	-1.050423
H	0.225783	-4.561092	-1.283188
C	-0.000000	-1.440664	-0.000000
S	-0.268187	-2.286957	1.521021
C	0.438209	-1.978743	-2.483507
H	0.550153	-2.878678	-3.118798
H	1.363906	-1.376015	-2.593381
H	-0.393798	-1.375728	-2.903516
C	0.000000	0.000000	0.000000
C	0.365003	0.782674	1.099446
C	0.949885	2.036912	0.776721
H	0.209135	0.448431	2.136088
C	1.043159	2.236886	-0.612546
S	0.398297	0.854094	-1.486809
C	1.409609	3.022738	1.814609
H	1.229726	2.636980	2.836676
H	0.877346	3.992870	1.726239
H	2.494910	3.238558	1.726228
H	1.444334	3.097160	-1.161575
H	0.688674	-4.392713	1.258111
H	-1.079084	-4.392347	0.946272
H	-1.063572	-1.440391	-0.187654
$end

$rem
JOBTYPE		SP
EXCHANGE	HF
CORRELATION	pRIMP2
BASIS		cc-pvtz
METHOD		rimp2
AUX_BASIS	rimp2-cc-pvtz
SOLVENT_METHOD	PCM
PURECART	11111
SYMMETRY	false
MEM_TOTAL	110000
SCF_CONVERGENCE = 6
THRESH=10
$end

$solvent
dielectric 4.90
$end
--------------------------------------------------------------

             Standard Nuclear Orientation (Angstroms)
    I     Atom           X                Y                Z
 ----------------------------------------------------------------
    1      C      -0.1353010000    -3.8667250000     0.7632280000
    2      C       0.1060730000    -3.7039630000    -0.6033110000
    3      C       0.1852860000    -2.3570560000    -1.0504230000
    4      H       0.2257830000    -4.5610920000    -1.2831880000
    5      C       0.0000000000    -1.4406640000     0.0000000000
    6      S      -0.2681870000    -2.2869570000     1.5210210000
    7      C       0.4382090000    -1.9787430000    -2.4835070000
    8      H       0.5501530000    -2.8786780000    -3.1187980000
    9      H       1.3639060000    -1.3760150000    -2.5933810000
   10      H      -0.3937980000    -1.3757280000    -2.9035160000
   11      C       0.0000000000     0.0000000000     0.0000000000
   12      C       0.3650030000     0.7826740000     1.0994460000
   13      C       0.9498850000     2.0369120000     0.7767210000
   14      H       0.2091350000     0.4484310000     2.1360880000
   15      C       1.0431590000     2.2368860000    -0.6125460000
   16      S       0.3982970000     0.8540940000    -1.4868090000
   17      C       1.4096090000     3.0227380000     1.8146090000
   18      H       1.2297260000     2.6369800000     2.8366760000
   19      H       0.8773460000     3.9928700000     1.7262390000
   20      H       2.4949100000     3.2385580000     1.7262280000
   21      H       1.4443340000     3.0971600000    -1.1615750000
   22      H       0.6886740000    -4.3927130000     1.2581110000
   23      H      -1.0790840000    -4.3923470000     0.9462720000
   24      H      -1.0635720000    -1.4403910000    -0.1876540000
 ----------------------------------------------------------------

   10   -1180.7382380890      5.30e-07  Convergence criterion met
 Total energy in the final basis set =    -1180.7382380890
        RIMP2         total energy =     -1182.7496115585 a.u.

                    Orbital Energies (a.u.)
 --------------------------------------------------------------

 Alpha MOs
 -- Occupied --
-91.9798 -91.9452 -11.2837 -11.2660 -11.2583 -11.2581 -11.2496 -11.2431
-11.2346 -11.2313 -11.2274 -11.2204  -8.9803  -8.9497  -6.6611  -6.6605
 -6.6599  -6.6311  -6.6301  -6.6288  -1.2018  -1.1523  -1.0602  -1.0277
 -1.0064  -0.9571  -0.9154  -0.9020  -0.8130  -0.7721  -0.7186  -0.7061
 -0.6558  -0.6466  -0.6106  -0.5933  -0.5822  -0.5722  -0.5678  -0.5521
 -0.5411  -0.5335  -0.5165  -0.5131  -0.4880  -0.4763  -0.4568  -0.4436
 -0.3578  -0.3404  -0.3262  -0.2624

          Ground-State Mulliken Net Atomic Charges

     Atom                 Charge (a.u.)
  ----------------------------------------
      1 C                    -0.071883
      2 C                    -0.327309
      3 C                    -0.044235
      4 H                     0.178759
      5 C                     0.115613
      6 S                    -0.189762
      7 C                    -0.303499
      8 H                     0.119117
      9 H                     0.118936
     10 H                     0.107380
     11 C                    -0.039111
     12 C                    -0.283040
     13 C                     0.041477
     14 H                     0.182147
     15 C                    -0.265549
     16 S                     0.007834
     17 C                    -0.270629
     18 H                     0.102620
     19 H                     0.108168
     20 H                     0.107583
     21 H                     0.196928
     22 H                     0.112334
     23 H                     0.112171
     24 H                     0.183949
  ----------------------------------------
  Sum of atomic charges =     0.000000

                    Cartesian Multipole Moments
 -----------------------------------------------------------------
    Charge (ESU x 10^10)
                -0.0000
    Dipole Moment (Debye)
         X       0.2957      Y      -0.1578      Z      -1.2120
       Tot       1.2575
    Quadrupole Moments (Debye-Ang)
        XX     -89.8231     XY       4.6820     YY     -75.5194
        XZ      -0.0472     YZ       4.6815     ZZ     -85.5391

 Total job time:  667.42s(wall), 663.23s(cpu)
        *  Thank you very much for using Q-Chem.  Have a nice day.  *
