 Q-Chem 5.4, Q-Chem, Inc., Pleasanton, CA (2021)
 Q-Chem 5.4.0 for Intel X86 EM64T Linux

User input:
--------------------------------------------------------------
$molecule
0 1
C	-0.775127	-3.866725	-0.000713
C	0.612565	-3.703963	-0.000302
C	1.066639	-2.357056	0.000067
H	1.302900	-4.561092	-0.000470
C	0.000000	-1.440664	0.000000
S	-1.544483	-2.286957	0.000009
C	2.521872	-1.978743	0.000295
H	3.166949	-2.878678	0.000221
H	2.790821	-1.376015	0.892850
H	2.791023	-1.375728	-0.892005
C	0.000000	0.000000	0.000000
C	0.431829	0.747884	1.099446
C	1.123799	1.946373	0.776721
H	0.247423	0.428497	2.136088
C	1.234147	2.137457	-0.612546
S	0.471221	0.816130	-1.486809
C	1.667694	2.888380	1.814609
H	1.454874	2.519768	2.836676
H	1.222009	3.901210	1.726239
H	2.767675	3.008788	1.726228
H	1.708773	2.959493	-1.161575
H	-1.119411	-4.392713	0.896681
H	-1.119277	-4.392347	-0.898372
H	-0.000115	-1.440937	1.080000
$end

$rem
JOBTYPE		SP
EXCHANGE	HF
CORRELATION	pRIMP2
BASIS		cc-pvtz
METHOD		rimp2
AUX_BASIS	rimp2-cc-pvtz
SOLVENT_METHOD	PCM
PURECART	11111
SYMMETRY	false
MEM_TOTAL	110000
SCF_CONVERGENCE = 6
THRESH=10
$end

$solvent
dielectric 4.90
$end
--------------------------------------------------------------

             Standard Nuclear Orientation (Angstroms)
    I     Atom           X                Y                Z
 ----------------------------------------------------------------
    1      C      -0.7751270000    -3.8667250000    -0.0007130000
    2      C       0.6125650000    -3.7039630000    -0.0003020000
    3      C       1.0666390000    -2.3570560000     0.0000670000
    4      H       1.3029000000    -4.5610920000    -0.0004700000
    5      C       0.0000000000    -1.4406640000     0.0000000000
    6      S      -1.5444830000    -2.2869570000     0.0000090000
    7      C       2.5218720000    -1.9787430000     0.0002950000
    8      H       3.1669490000    -2.8786780000     0.0002210000
    9      H       2.7908210000    -1.3760150000     0.8928500000
   10      H       2.7910230000    -1.3757280000    -0.8920050000
   11      C       0.0000000000     0.0000000000     0.0000000000
   12      C       0.4318290000     0.7478840000     1.0994460000
   13      C       1.1237990000     1.9463730000     0.7767210000
   14      H       0.2474230000     0.4284970000     2.1360880000
   15      C       1.2341470000     2.1374570000    -0.6125460000
   16      S       0.4712210000     0.8161300000    -1.4868090000
   17      C       1.6676940000     2.8883800000     1.8146090000
   18      H       1.4548740000     2.5197680000     2.8366760000
   19      H       1.2220090000     3.9012100000     1.7262390000
   20      H       2.7676750000     3.0087880000     1.7262280000
   21      H       1.7087730000     2.9594930000    -1.1615750000
   22      H      -1.1194110000    -4.3927130000     0.8966810000
   23      H      -1.1192770000    -4.3923470000    -0.8983720000
   24      H      -0.0001150000    -1.4409370000     1.0800000000
 ----------------------------------------------------------------

   10   -1180.7457682696      5.92e-07  Convergence criterion met
 Total energy in the final basis set =    -1180.7457682696
        RIMP2         total energy =     -1182.7556297708 a.u.

                    Orbital Energies (a.u.)
 --------------------------------------------------------------

 Alpha MOs
 -- Occupied --
-91.9803 -91.9366 -11.2742 -11.2716 -11.2620 -11.2530 -11.2521 -11.2492
-11.2386 -11.2304 -11.2303 -11.2183  -8.9804  -8.9415  -6.6613  -6.6607
 -6.6602  -6.6229  -6.6219  -6.6206  -1.1988  -1.1542  -1.0581  -1.0241
 -1.0068  -0.9608  -0.9107  -0.9019  -0.8122  -0.7610  -0.7388  -0.7027
 -0.6593  -0.6394  -0.6108  -0.5898  -0.5800  -0.5729  -0.5661  -0.5510
 -0.5416  -0.5279  -0.5189  -0.5045  -0.4923  -0.4718  -0.4596  -0.4455
 -0.3534  -0.3430  -0.3137  -0.2791

          Ground-State Mulliken Net Atomic Charges

     Atom                 Charge (a.u.)
  ----------------------------------------
      1 C                    -0.076329
      2 C                    -0.326689
      3 C                    -0.022161
      4 H                     0.175837
      5 C                     0.067259
      6 S                    -0.190083
      7 C                    -0.271963
      8 H                     0.116115
      9 H                     0.101892
     10 H                     0.109994
     11 C                    -0.057283
     12 C                    -0.260659
     13 C                     0.039106
     14 H                     0.183472
     15 C                    -0.227583
     16 S                     0.004689
     17 C                    -0.269563
     18 H                     0.102458
     19 H                     0.108621
     20 H                     0.107420
     21 H                     0.198228
     22 H                     0.108595
     23 H                     0.109659
     24 H                     0.168968
  ----------------------------------------
  Sum of atomic charges =     0.000000

                    Cartesian Multipole Moments
 -----------------------------------------------------------------
    Charge (ESU x 10^10)
                -0.0000
    Dipole Moment (Debye)
         X       3.6150      Y       0.8521      Z       2.3586
       Tot       4.3997
    Quadrupole Moments (Debye-Ang)
        XX     -89.1997     XY       1.0128     YY     -76.7612
        XZ       0.1751     YZ      -0.4227     ZZ     -85.8869

 Total job time:  668.66s(wall), 664.63s(cpu)
        *  Thank you very much for using Q-Chem.  Have a nice day.  *
