 Q-Chem 5.4, Q-Chem, Inc., Pleasanton, CA (2021)
 Q-Chem 5.4.0 for Intel X86 EM64T Linux

User input:
--------------------------------------------------------------
$molecule
0 1
C	-3.419064	-1.965296	-0.000154
C	-2.382119	-2.901739	0.000138
C	-1.069838	-2.355606	0.000300
H	-2.571830	-3.985825	0.000034
C	-1.083549	-0.949439	0.000188
S	-2.737920	-0.345537	0.000416
C	0.173738	-3.200793	0.000377
H	-0.077994	-4.279050	0.000375
H	0.804435	-3.005830	0.892834
H	0.804526	-3.005852	-0.892021
C	0.000000	0.000000	0.000000
C	-0.075037	1.396050	-0.000003
C	1.178509	2.065358	-0.000187
H	-1.035595	1.932678	0.000111
C	2.260036	1.165885	-0.000291
S	1.688645	-0.497187	-0.000203
C	1.312627	3.562830	-0.000233
H	0.318926	4.051038	-0.000107
H	1.862843	3.927534	-0.892714
H	1.863087	3.927568	0.892083
H	3.335785	1.378512	-0.000433
H	-4.041432	-2.052965	0.897332
H	-4.041327	-2.052884	-0.897721
H	-1.083675	-0.949497	1.080188
$end

$rem
JOBTYPE		SP
EXCHANGE	HF
CORRELATION	pRIMP2
BASIS		cc-pvtz
METHOD		rimp2
AUX_BASIS	rimp2-cc-pvtz
SOLVENT_METHOD	PCM
PURECART	11111
SYMMETRY	false
MEM_TOTAL	110000
SCF_CONVERGENCE = 6
THRESH=10
$end

$solvent
dielectric 4.90
$end
--------------------------------------------------------------

   10   -1180.7590049688      5.15e-07  Convergence criterion met
 Total energy in the final basis set =    -1180.7590049688
        RIMP2         total energy =     -1182.7644797893 a.u.
 Total job time:  919.95s(wall), 648.81s(cpu)
        *  Thank you very much for using Q-Chem.  Have a nice day.  *
 Q-Chem 5.4, Q-Chem, Inc., Pleasanton, CA (2021)
 Q-Chem 5.4.0 for Intel X86 EM64T Linux

User input:
--------------------------------------------------------------
$molecule
0 1
C	-3.419064	-1.965296	-0.000154
C	-2.382119	-2.901739	0.000138
C	-1.069838	-2.355606	0.000300
H	-2.571830	-3.985825	0.000034
C	-1.083549	-0.949439	0.000188
S	-2.737920	-0.345537	0.000416
C	0.173738	-3.200793	0.000377
H	-0.077994	-4.279050	0.000375
H	0.804435	-3.005830	0.892834
H	0.804526	-3.005852	-0.892021
C	0.000000	0.000000	0.000000
C	-0.075037	1.396050	-0.000003
C	1.178509	2.065358	-0.000187
H	-1.035595	1.932678	0.000111
C	2.260036	1.165885	-0.000291
S	1.688645	-0.497187	-0.000203
C	1.312627	3.562830	-0.000233
H	0.318926	4.051038	-0.000107
H	1.862843	3.927534	-0.892714
H	1.863087	3.927568	0.892083
H	3.335785	1.378512	-0.000433
H	-4.041432	-2.052965	0.897332
H	-4.041327	-2.052884	-0.897721
H	-1.083675	-0.949497	1.080188
$end

$rem
JOBTYPE		SP
EXCHANGE	HF
CORRELATION	pRIMP2
BASIS		cc-pvtz
METHOD		rimp2
AUX_BASIS	rimp2-cc-pvtz
SOLVENT_METHOD	PCM
PURECART	11111
SYMMETRY	false
MEM_TOTAL	110000
SCF_CONVERGENCE = 6
THRESH=10
$end

$solvent
dielectric 4.90
$end
--------------------------------------------------------------

   10   -1180.7590049688      5.15e-07  Convergence criterion met
 Total energy in the final basis set =    -1180.7590049688
        RIMP2         total energy =     -1182.7644797893 a.u.
 Total job time:  656.20s(wall), 651.19s(cpu)
        *  Thank you very much for using Q-Chem.  Have a nice day.  *
 Q-Chem 5.4, Q-Chem, Inc., Pleasanton, CA (2021)
 Q-Chem 5.4.0 for Intel X86 EM64T Linux

User input:
--------------------------------------------------------------
$molecule
0 1
C	-3.419064	-1.965296	-0.000154
C	-2.382119	-2.901739	0.000138
C	-1.069838	-2.355606	0.000300
H	-2.571830	-3.985825	0.000034
C	-1.083549	-0.949439	0.000188
S	-2.737920	-0.345537	0.000416
C	0.173738	-3.200793	0.000377
H	-0.077994	-4.279050	0.000375
H	0.804435	-3.005830	0.892834
H	0.804526	-3.005852	-0.892021
C	0.000000	0.000000	0.000000
C	-0.075037	1.396050	-0.000003
C	1.178509	2.065358	-0.000187
H	-1.035595	1.932678	0.000111
C	2.260036	1.165885	-0.000291
S	1.688645	-0.497187	-0.000203
C	1.312627	3.562830	-0.000233
H	0.318926	4.051038	-0.000107
H	1.862843	3.927534	-0.892714
H	1.863087	3.927568	0.892083
H	3.335785	1.378512	-0.000433
H	-4.041432	-2.052965	0.897332
H	-4.041327	-2.052884	-0.897721
H	-1.083675	-0.949497	1.080188
$end

$rem
JOBTYPE		SP
EXCHANGE	HF
CORRELATION	pRIMP2
BASIS		cc-pvtz
METHOD		rimp2
AUX_BASIS	rimp2-cc-pvtz
SOLVENT_METHOD	PCM
PURECART	11111
SYMMETRY	false
MEM_TOTAL	110000
SCF_CONVERGENCE = 6
THRESH=10
$end

$solvent
dielectric 4.90
$end
--------------------------------------------------------------

             Standard Nuclear Orientation (Angstroms)
    I     Atom           X                Y                Z
 ----------------------------------------------------------------
    1      C      -3.4190640000    -1.9652960000    -0.0001540000
    2      C      -2.3821190000    -2.9017390000     0.0001380000
    3      C      -1.0698380000    -2.3556060000     0.0003000000
    4      H      -2.5718300000    -3.9858250000     0.0000340000
    5      C      -1.0835490000    -0.9494390000     0.0001880000
    6      S      -2.7379200000    -0.3455370000     0.0004160000
    7      C       0.1737380000    -3.2007930000     0.0003770000
    8      H      -0.0779940000    -4.2790500000     0.0003750000
    9      H       0.8044350000    -3.0058300000     0.8928340000
   10      H       0.8045260000    -3.0058520000    -0.8920210000
   11      C       0.0000000000     0.0000000000     0.0000000000
   12      C      -0.0750370000     1.3960500000    -0.0000030000
   13      C       1.1785090000     2.0653580000    -0.0001870000
   14      H      -1.0355950000     1.9326780000     0.0001110000
   15      C       2.2600360000     1.1658850000    -0.0002910000
   16      S       1.6886450000    -0.4971870000    -0.0002030000
   17      C       1.3126270000     3.5628300000    -0.0002330000
   18      H       0.3189260000     4.0510380000    -0.0001070000
   19      H       1.8628430000     3.9275340000    -0.8927140000
   20      H       1.8630870000     3.9275680000     0.8920830000
   21      H       3.3357850000     1.3785120000    -0.0004330000
   22      H      -4.0414320000    -2.0529650000     0.8973320000
   23      H      -4.0413270000    -2.0528840000    -0.8977210000
   24      H      -1.0836750000    -0.9494970000     1.0801880000
 ----------------------------------------------------------------

   10   -1180.7590049688      5.15e-07  Convergence criterion met
 Total energy in the final basis set =    -1180.7590049688
        RIMP2         total energy =     -1182.7644797893 a.u.

                    Orbital Energies (a.u.)
 --------------------------------------------------------------

 Alpha MOs
 -- Occupied --
-91.9813 -91.9472 -11.2914 -11.2666 -11.2628 -11.2523 -11.2497 -11.2447
-11.2332 -11.2298 -11.2273 -11.2235  -8.9814  -8.9517  -6.6623  -6.6618
 -6.6611  -6.6331  -6.6321  -6.6308  -1.2031  -1.1522  -1.0613  -1.0290
 -1.0068  -0.9563  -0.9169  -0.9016  -0.8154  -0.7726  -0.7169  -0.7046
 -0.6607  -0.6490  -0.6111  -0.5922  -0.5826  -0.5715  -0.5681  -0.5542
 -0.5424  -0.5345  -0.5165  -0.5094  -0.4877  -0.4866  -0.4581  -0.4455
 -0.3594  -0.3419  -0.3269  -0.2648

          Ground-State Mulliken Net Atomic Charges

     Atom                 Charge (a.u.)
  ----------------------------------------
      1 C                    -0.073002
      2 C                    -0.317247
      3 C                    -0.055812
      4 H                     0.179749
      5 C                     0.159692
      6 S                    -0.186144
      7 C                    -0.312047
      8 H                     0.123126
      9 H                     0.110765
     10 H                     0.116111
     11 C                    -0.032041
     12 C                    -0.317603
     13 C                     0.045473
     14 H                     0.176924
     15 C                    -0.283829
     16 S                     0.006588
     17 C                    -0.272632
     18 H                     0.102658
     19 H                     0.108421
     20 H                     0.108389
     21 H                     0.196417
     22 H                     0.111692
     23 H                     0.113389
     24 H                     0.190967
  ----------------------------------------
  Sum of atomic charges =     0.000000

                    Cartesian Multipole Moments
 -----------------------------------------------------------------
    Charge (ESU x 10^10)
                 0.0000
    Dipole Moment (Debye)
         X       0.2856      Y      -1.2015      Z       0.8864
       Tot       1.5201
    Quadrupole Moments (Debye-Ang)
        XX     -83.0859     XY       6.8551     YY     -75.3772
        XZ      -1.3246     YZ      -0.7413     ZZ     -91.7936

 Total job time:  660.54s(wall), 654.84s(cpu)
        *  Thank you very much for using Q-Chem.  Have a nice day.  *
