 Q-Chem 5.4, Q-Chem, Inc., Pleasanton, CA (2021)
 Q-Chem 5.4.0 for Intel X86 EM64T Linux

User input:
--------------------------------------------------------------
$molecule
0 1
C	-0.763475	-3.866725	0.133897
C	0.603206	-3.703963	-0.106669
C	1.050446	-2.357056	-0.185154
H	1.283024	-4.561092	-0.226709
C	0.000000	-1.440664	0.000000
S	-1.521018	-2.286957	0.268206
C	2.483610	-1.978743	-0.437628
H	3.118875	-2.878678	-0.549717
H	2.903464	-1.376015	0.394664
H	2.593726	-1.375728	-1.363110
C	0.000000	0.000000	0.000000
C	0.295399	0.811508	1.099446
C	0.768742	2.111949	0.776721
H	0.169256	0.464952	2.136088
C	0.844232	2.319291	-0.612546
S	0.322342	0.885558	-1.486809
C	1.140796	3.134091	1.814609
H	0.995218	2.734123	2.836676
H	0.526006	4.054142	1.726239
H	2.203157	3.443680	1.726228
H	1.168902	3.211257	-1.161575
H	-0.946698	-4.392713	1.077442
H	-1.258274	-4.392347	-0.690363
H	-0.187427	-1.440391	-1.063612
$end

$rem
JOBTYPE		SP
EXCHANGE	HF
CORRELATION	pRIMP2
BASIS		cc-pvtz
METHOD		rimp2
AUX_BASIS	rimp2-cc-pvtz
SOLVENT_METHOD	PCM
PURECART	11111
SYMMETRY	false
MEM_TOTAL	110000
SCF_CONVERGENCE = 6
THRESH=10
$end

$solvent
dielectric 4.90
$end
--------------------------------------------------------------

   10   -1180.7512688589      5.27e-07  Convergence criterion met
 Total energy in the final basis set =    -1180.7512688589
        RIMP2         total energy =     -1182.7582102020 a.u.
 Total job time:  657.76s(wall), 654.00s(cpu)
        *  Thank you very much for using Q-Chem.  Have a nice day.  *
 Q-Chem 5.4, Q-Chem, Inc., Pleasanton, CA (2021)
 Q-Chem 5.4.0 for Intel X86 EM64T Linux

User input:
--------------------------------------------------------------
$molecule
0 1
C	-0.763475	-3.866725	0.133897
C	0.603206	-3.703963	-0.106669
C	1.050446	-2.357056	-0.185154
H	1.283024	-4.561092	-0.226709
C	0.000000	-1.440664	0.000000
S	-1.521018	-2.286957	0.268206
C	2.483610	-1.978743	-0.437628
H	3.118875	-2.878678	-0.549717
H	2.903464	-1.376015	0.394664
H	2.593726	-1.375728	-1.363110
C	0.000000	0.000000	0.000000
C	0.295399	0.811508	1.099446
C	0.768742	2.111949	0.776721
H	0.169256	0.464952	2.136088
C	0.844232	2.319291	-0.612546
S	0.322342	0.885558	-1.486809
C	1.140796	3.134091	1.814609
H	0.995218	2.734123	2.836676
H	0.526006	4.054142	1.726239
H	2.203157	3.443680	1.726228
H	1.168902	3.211257	-1.161575
H	-0.946698	-4.392713	1.077442
H	-1.258274	-4.392347	-0.690363
H	-0.187427	-1.440391	-1.063612
$end

$rem
JOBTYPE		SP
EXCHANGE	HF
CORRELATION	pRIMP2
BASIS		cc-pvtz
METHOD		rimp2
AUX_BASIS	rimp2-cc-pvtz
SOLVENT_METHOD	PCM
PURECART	11111
SYMMETRY	false
MEM_TOTAL	110000
SCF_CONVERGENCE = 6
THRESH=10
$end

$solvent
dielectric 4.90
$end
--------------------------------------------------------------

             Standard Nuclear Orientation (Angstroms)
    I     Atom           X                Y                Z
 ----------------------------------------------------------------
    1      C      -0.7634750000    -3.8667250000     0.1338970000
    2      C       0.6032060000    -3.7039630000    -0.1066690000
    3      C       1.0504460000    -2.3570560000    -0.1851540000
    4      H       1.2830240000    -4.5610920000    -0.2267090000
    5      C       0.0000000000    -1.4406640000     0.0000000000
    6      S      -1.5210180000    -2.2869570000     0.2682060000
    7      C       2.4836100000    -1.9787430000    -0.4376280000
    8      H       3.1188750000    -2.8786780000    -0.5497170000
    9      H       2.9034640000    -1.3760150000     0.3946640000
   10      H       2.5937260000    -1.3757280000    -1.3631100000
   11      C       0.0000000000     0.0000000000     0.0000000000
   12      C       0.2953990000     0.8115080000     1.0994460000
   13      C       0.7687420000     2.1119490000     0.7767210000
   14      H       0.1692560000     0.4649520000     2.1360880000
   15      C       0.8442320000     2.3192910000    -0.6125460000
   16      S       0.3223420000     0.8855580000    -1.4868090000
   17      C       1.1407960000     3.1340910000     1.8146090000
   18      H       0.9952180000     2.7341230000     2.8366760000
   19      H       0.5260060000     4.0541420000     1.7262390000
   20      H       2.2031570000     3.4436800000     1.7262280000
   21      H       1.1689020000     3.2112570000    -1.1615750000
   22      H      -0.9466980000    -4.3927130000     1.0774420000
   23      H      -1.2582740000    -4.3923470000    -0.6903630000
   24      H      -0.1874270000    -1.4403910000    -1.0636120000
 ----------------------------------------------------------------

   10   -1180.7512688589      5.27e-07  Convergence criterion met
 Total energy in the final basis set =    -1180.7512688589
        RIMP2         total energy =     -1182.7582102020 a.u.

                    Orbital Energies (a.u.)
 --------------------------------------------------------------

 Alpha MOs
 -- Occupied --
-91.9867 -91.9396 -11.2754 -11.2685 -11.2622 -11.2542 -11.2516 -11.2410
-11.2396 -11.2304 -11.2292 -11.2183  -8.9864  -8.9443  -6.6673  -6.6667
 -6.6661  -6.6257  -6.6246  -6.6234  -1.1981  -1.1539  -1.0587  -1.0246
 -1.0038  -0.9632  -0.9126  -0.9007  -0.8110  -0.7647  -0.7396  -0.7051
 -0.6530  -0.6330  -0.6113  -0.5875  -0.5753  -0.5745  -0.5702  -0.5535
 -0.5425  -0.5286  -0.5161  -0.5044  -0.4914  -0.4772  -0.4639  -0.4463
 -0.3546  -0.3427  -0.3132  -0.2804

          Ground-State Mulliken Net Atomic Charges

     Atom                 Charge (a.u.)
  ----------------------------------------
      1 C                    -0.076375
      2 C                    -0.331680
      3 C                    -0.013221
      4 H                     0.175685
      5 C                     0.078322
      6 S                    -0.180496
      7 C                    -0.267027
      8 H                     0.114003
      9 H                     0.107246
     10 H                     0.102981
     11 C                    -0.094395
     12 C                    -0.236267
     13 C                     0.029349
     14 H                     0.185941
     15 C                    -0.240007
     16 S                     0.014322
     17 C                    -0.271439
     18 H                     0.103240
     19 H                     0.108226
     20 H                     0.107201
     21 H                     0.199162
     22 H                     0.111653
     23 H                     0.109412
     24 H                     0.164165
  ----------------------------------------
  Sum of atomic charges =     0.000000

                    Cartesian Multipole Moments
 -----------------------------------------------------------------
    Charge (ESU x 10^10)
                -0.0000
    Dipole Moment (Debye)
         X       3.0154      Y       0.8599      Z       0.3195
       Tot       3.1518
    Quadrupole Moments (Debye-Ang)
        XX     -90.4827     XY       0.1978     YY     -75.0919
        XZ       0.5827     YZ       2.8595     ZZ     -85.9169

 Total job time:  655.21s(wall), 652.70s(cpu)
        *  Thank you very much for using Q-Chem.  Have a nice day.  *
