 Q-Chem 5.4, Q-Chem, Inc., Pleasanton, CA (2021)
 Q-Chem 5.4.0 for Intel X86 EM64T Linux

User input:
--------------------------------------------------------------
$molecule
0 1
C	-0.265779	-3.866725	0.728138
C	0.209225	-3.703963	-0.575726
C	0.364875	-2.357056	-1.002290
H	0.445176	-4.561092	-1.224486
C	0.000000	-1.440664	0.000000
S	-0.528236	-2.286957	1.451343
C	0.862808	-1.978743	-2.369683
H	1.083368	-2.878678	-2.975883
H	1.793522	-1.376015	-2.317142
H	0.116375	-1.375728	-2.927787
C	0.000000	0.000000	0.000000
C	0.223548	0.834165	1.099446
C	0.581748	2.170912	0.776721
H	0.128089	0.477934	2.136088
C	0.638880	2.384045	-0.612546
S	0.243934	0.910282	-1.486809
C	0.863301	3.221592	1.814609
H	0.753137	2.810458	2.836676
H	0.170663	4.084559	1.726239
H	1.894637	3.622593	1.726228
H	0.884575	3.300913	-1.161575
H	0.459743	-4.392713	1.358585
H	-1.227009	-4.392347	0.744515
H	1.014829	-1.440937	0.369490
$end

$rem
JOBTYPE		SP
EXCHANGE	HF
CORRELATION	pRIMP2
BASIS		cc-pvtz
METHOD		rimp2
AUX_BASIS	rimp2-cc-pvtz
SOLVENT_METHOD	PCM
PURECART	11111
SYMMETRY	false
MEM_TOTAL	110000
SCF_CONVERGENCE = 6
THRESH=10
$end

$solvent
dielectric 4.90
$end
--------------------------------------------------------------

             Standard Nuclear Orientation (Angstroms)
    I     Atom           X                Y                Z
 ----------------------------------------------------------------
    1      C      -0.2657790000    -3.8667250000     0.7281380000
    2      C       0.2092250000    -3.7039630000    -0.5757260000
    3      C       0.3648750000    -2.3570560000    -1.0022900000
    4      H       0.4451760000    -4.5610920000    -1.2244860000
    5      C       0.0000000000    -1.4406640000     0.0000000000
    6      S      -0.5282360000    -2.2869570000     1.4513430000
    7      C       0.8628080000    -1.9787430000    -2.3696830000
    8      H       1.0833680000    -2.8786780000    -2.9758830000
    9      H       1.7935220000    -1.3760150000    -2.3171420000
   10      H       0.1163750000    -1.3757280000    -2.9277870000
   11      C       0.0000000000     0.0000000000     0.0000000000
   12      C       0.2235480000     0.8341650000     1.0994460000
   13      C       0.5817480000     2.1709120000     0.7767210000
   14      H       0.1280890000     0.4779340000     2.1360880000
   15      C       0.6388800000     2.3840450000    -0.6125460000
   16      S       0.2439340000     0.9102820000    -1.4868090000
   17      C       0.8633010000     3.2215920000     1.8146090000
   18      H       0.7531370000     2.8104580000     2.8366760000
   19      H       0.1706630000     4.0845590000     1.7262390000
   20      H       1.8946370000     3.6225930000     1.7262280000
   21      H       0.8845750000     3.3009130000    -1.1615750000
   22      H       0.4597430000    -4.3927130000     1.3585850000
   23      H      -1.2270090000    -4.3923470000     0.7445150000
   24      H       1.0148290000    -1.4409370000     0.3694900000
 ----------------------------------------------------------------

   10   -1180.7534058406      4.90e-07  Convergence criterion met
 Total energy in the final basis set =    -1180.7534058406
        RIMP2         total energy =     -1182.7607932310 a.u.

                    Orbital Energies (a.u.)
 --------------------------------------------------------------

 Alpha MOs
 -- Occupied --
-91.9816 -91.9455 -11.2897 -11.2656 -11.2613 -11.2537 -11.2501 -11.2439
-11.2321 -11.2304 -11.2277 -11.2225  -8.9816  -8.9501  -6.6625  -6.6620
 -6.6613  -6.6315  -6.6305  -6.6292  -1.2028  -1.1521  -1.0607  -1.0281
 -1.0071  -0.9558  -0.9155  -0.9017  -0.8139  -0.7716  -0.7193  -0.7021
 -0.6632  -0.6471  -0.6111  -0.5885  -0.5822  -0.5727  -0.5682  -0.5542
 -0.5425  -0.5334  -0.5158  -0.5099  -0.4911  -0.4809  -0.4569  -0.4464
 -0.3581  -0.3419  -0.3251  -0.2646

          Ground-State Mulliken Net Atomic Charges

     Atom                 Charge (a.u.)
  ----------------------------------------
      1 C                    -0.074703
      2 C                    -0.317765
      3 C                    -0.041400
      4 H                     0.178860
      5 C                     0.090910
      6 S                    -0.181455
      7 C                    -0.302886
      8 H                     0.118018
      9 H                     0.115115
     10 H                     0.110288
     11 C                    -0.003325
     12 C                    -0.305118
     13 C                     0.039306
     14 H                     0.178610
     15 C                    -0.275084
     16 S                     0.007598
     17 C                    -0.271253
     18 H                     0.102652
     19 H                     0.108568
     20 H                     0.107737
     21 H                     0.196164
     22 H                     0.111160
     23 H                     0.114077
     24 H                     0.193925
  ----------------------------------------
  Sum of atomic charges =     0.000000

                    Cartesian Multipole Moments
 -----------------------------------------------------------------
    Charge (ESU x 10^10)
                -0.0000
    Dipole Moment (Debye)
         X       2.0410      Y      -0.4345      Z      -0.6814
       Tot       2.1951
    Quadrupole Moments (Debye-Ang)
        XX     -91.1908     XY      -0.1183     YY     -74.1733
        XZ       0.3747     YZ       3.8720     ZZ     -85.4292

 Total job time:  652.65s(wall), 650.41s(cpu)
        *  Thank you very much for using Q-Chem.  Have a nice day.  *
