 Q-Chem 5.4, Q-Chem, Inc., Pleasanton, CA (2021)
 Q-Chem 5.4.0 for Intel X86 EM64T Linux

User input:
--------------------------------------------------------------
$molecule
0 1
C	0.000713	-3.866725	-0.775127
C	0.000302	-3.703963	0.612565
C	-0.000067	-2.357056	1.066639
H	0.000470	-4.561092	1.302900
C	-0.000000	-1.440664	-0.000000
S	-0.000009	-2.286957	-1.544483
C	-0.000295	-1.978743	2.521872
H	-0.000221	-2.878678	3.166949
H	-0.892850	-1.376015	2.790821
H	0.892005	-1.375728	2.791023
C	0.000000	0.000000	0.000000
C	0.365003	0.782674	1.099446
C	0.949885	2.036912	0.776721
H	0.209135	0.448431	2.136088
C	1.043159	2.236886	-0.612546
S	0.398297	0.854094	-1.486809
C	1.409609	3.022738	1.814609
H	1.229726	2.636980	2.836676
H	0.877346	3.992870	1.726239
H	2.494910	3.238558	1.726228
H	1.444334	3.097160	-1.161575
H	-0.896681	-4.392713	-1.119411
H	0.898372	-4.392347	-1.119277
H	-1.080000	-1.440937	-0.000115
$end

$rem
JOBTYPE		SP
EXCHANGE	HF
CORRELATION	pRIMP2
BASIS		cc-pvtz
METHOD		rimp2
AUX_BASIS	rimp2-cc-pvtz
SOLVENT_METHOD	PCM
PURECART	11111
SYMMETRY	false
MEM_TOTAL	110000
SCF_CONVERGENCE = 6
THRESH=10
$end

$solvent
dielectric 4.90
$end
--------------------------------------------------------------

             Standard Nuclear Orientation (Angstroms)
    I     Atom           X                Y                Z
 ----------------------------------------------------------------
    1      C       0.0007130000    -3.8667250000    -0.7751270000
    2      C       0.0003020000    -3.7039630000     0.6125650000
    3      C      -0.0000670000    -2.3570560000     1.0666390000
    4      H       0.0004700000    -4.5610920000     1.3029000000
    5      C       0.0000000000    -1.4406640000     0.0000000000
    6      S      -0.0000090000    -2.2869570000    -1.5444830000
    7      C      -0.0002950000    -1.9787430000     2.5218720000
    8      H      -0.0002210000    -2.8786780000     3.1669490000
    9      H      -0.8928500000    -1.3760150000     2.7908210000
   10      H       0.8920050000    -1.3757280000     2.7910230000
   11      C       0.0000000000     0.0000000000     0.0000000000
   12      C       0.3650030000     0.7826740000     1.0994460000
   13      C       0.9498850000     2.0369120000     0.7767210000
   14      H       0.2091350000     0.4484310000     2.1360880000
   15      C       1.0431590000     2.2368860000    -0.6125460000
   16      S       0.3982970000     0.8540940000    -1.4868090000
   17      C       1.4096090000     3.0227380000     1.8146090000
   18      H       1.2297260000     2.6369800000     2.8366760000
   19      H       0.8773460000     3.9928700000     1.7262390000
   20      H       2.4949100000     3.2385580000     1.7262280000
   21      H       1.4443340000     3.0971600000    -1.1615750000
   22      H      -0.8966810000    -4.3927130000    -1.1194110000
   23      H       0.8983720000    -4.3923470000    -1.1192770000
   24      H      -1.0800000000    -1.4409370000    -0.0001150000
 ----------------------------------------------------------------

   10   -1180.7383848028      5.42e-07  Convergence criterion met
 Total energy in the final basis set =    -1180.7383848028
        RIMP2         total energy =     -1182.7494770195 a.u.

                    Orbital Energies (a.u.)
 --------------------------------------------------------------

 Alpha MOs
 -- Occupied --
-91.9826 -91.9454 -11.2841 -11.2660 -11.2582 -11.2574 -11.2498 -11.2435
-11.2340 -11.2319 -11.2282 -11.2215  -8.9825  -8.9500  -6.6634  -6.6628
 -6.6622  -6.6314  -6.6304  -6.6291  -1.2019  -1.1523  -1.0596  -1.0323
 -1.0003  -0.9625  -0.9159  -0.8995  -0.8175  -0.7623  -0.7289  -0.7073
 -0.6550  -0.6471  -0.6097  -0.5944  -0.5866  -0.5685  -0.5622  -0.5493
 -0.5460  -0.5357  -0.5238  -0.5028  -0.4836  -0.4766  -0.4694  -0.4414
 -0.3613  -0.3428  -0.3232  -0.2610

          Ground-State Mulliken Net Atomic Charges

     Atom                 Charge (a.u.)
  ----------------------------------------
      1 C                    -0.075951
      2 C                    -0.318882
      3 C                    -0.047337
      4 H                     0.178714
      5 C                     0.118427
      6 S                    -0.180260
      7 C                    -0.302752
      8 H                     0.122310
      9 H                     0.106288
     10 H                     0.108807
     11 C                    -0.041710
     12 C                    -0.293396
     13 C                     0.050011
     14 H                     0.190213
     15 C                    -0.274647
     16 S                     0.012015
     17 C                    -0.270939
     18 H                     0.100528
     19 H                     0.108494
     20 H                     0.107960
     21 H                     0.196933
     22 H                     0.111725
     23 H                     0.113668
     24 H                     0.179779
  ----------------------------------------
  Sum of atomic charges =     0.000000

                    Cartesian Multipole Moments
 -----------------------------------------------------------------
    Charge (ESU x 10^10)
                -0.0000
    Dipole Moment (Debye)
         X      -0.2055      Y      -0.2799      Z       3.7903
       Tot       3.8062
    Quadrupole Moments (Debye-Ang)
        XX     -89.9626     XY       5.3089     YY     -75.0721
        XZ       0.7040     YZ      -2.4406     ZZ     -85.5842

 Total job time:  668.41s(wall), 664.32s(cpu)
        *  Thank you very much for using Q-Chem.  Have a nice day.  *
