 Q-Chem 5.4, Q-Chem, Inc., Pleasanton, CA (2021)
 Q-Chem 5.4.0 for Intel X86 EM64T Linux

User input:
--------------------------------------------------------------
$molecule
0 1
C	-0.728625	-3.866725	0.264439
C	0.575519	-3.703963	-0.209794
C	1.002336	-2.357056	-0.364749
H	1.224165	-4.561092	-0.446060
C	0.000000	-1.440664	0.000000
S	-1.451336	-2.286957	0.528253
C	2.369885	-1.978743	-0.862253
H	2.976034	-2.878678	-1.082953
H	2.927887	-1.376015	-0.115513
H	2.317620	-1.375728	-1.792797
C	0.000000	0.000000	0.000000
C	0.295399	0.811508	1.099446
C	0.768742	2.111949	0.776721
H	0.169256	0.464952	2.136088
C	0.844232	2.319291	-0.612546
S	0.322342	0.885558	-1.486809
C	1.140796	3.134091	1.814609
H	0.995218	2.734123	2.836676
H	0.526006	4.054142	1.726239
H	2.203157	3.443680	1.726228
H	1.168902	3.211257	-1.161575
H	-0.745219	-4.392713	1.225465
H	-1.359038	-4.392347	-0.461378
H	0.369273	-1.440937	1.014907
$end

$rem
JOBTYPE		SP
EXCHANGE	HF
CORRELATION	pRIMP2
BASIS		cc-pvtz
METHOD		rimp2
AUX_BASIS	rimp2-cc-pvtz
SOLVENT_METHOD	PCM
PURECART	11111
SYMMETRY	false
MEM_TOTAL	110000
SCF_CONVERGENCE = 6
THRESH=10
$end

$solvent
dielectric 4.90
$end
--------------------------------------------------------------

             Standard Nuclear Orientation (Angstroms)
    I     Atom           X                Y                Z
 ----------------------------------------------------------------
    1      C      -0.7286250000    -3.8667250000     0.2644390000
    2      C       0.5755190000    -3.7039630000    -0.2097940000
    3      C       1.0023360000    -2.3570560000    -0.3647490000
    4      H       1.2241650000    -4.5610920000    -0.4460600000
    5      C       0.0000000000    -1.4406640000     0.0000000000
    6      S      -1.4513360000    -2.2869570000     0.5282530000
    7      C       2.3698850000    -1.9787430000    -0.8622530000
    8      H       2.9760340000    -2.8786780000    -1.0829530000
    9      H       2.9278870000    -1.3760150000    -0.1155130000
   10      H       2.3176200000    -1.3757280000    -1.7927970000
   11      C       0.0000000000     0.0000000000     0.0000000000
   12      C       0.2953990000     0.8115080000     1.0994460000
   13      C       0.7687420000     2.1119490000     0.7767210000
   14      H       0.1692560000     0.4649520000     2.1360880000
   15      C       0.8442320000     2.3192910000    -0.6125460000
   16      S       0.3223420000     0.8855580000    -1.4868090000
   17      C       1.1407960000     3.1340910000     1.8146090000
   18      H       0.9952180000     2.7341230000     2.8366760000
   19      H       0.5260060000     4.0541420000     1.7262390000
   20      H       2.2031570000     3.4436800000     1.7262280000
   21      H       1.1689020000     3.2112570000    -1.1615750000
   22      H      -0.7452190000    -4.3927130000     1.2254650000
   23      H      -1.3590380000    -4.3923470000    -0.4613780000
   24      H       0.3692730000    -1.4409370000     1.0149070000
 ----------------------------------------------------------------

   10   -1180.7532336027      5.34e-07  Convergence criterion met
 Total energy in the final basis set =    -1180.7532336027
        RIMP2         total energy =     -1182.7608818133 a.u.

                    Orbital Energies (a.u.)
 --------------------------------------------------------------

 Alpha MOs
 -- Occupied --
-91.9815 -91.9391 -11.2800 -11.2656 -11.2631 -11.2544 -11.2513 -11.2436
-11.2400 -11.2304 -11.2296 -11.2191  -8.9815  -8.9440  -6.6624  -6.6618
 -6.6613  -6.6253  -6.6243  -6.6230  -1.1988  -1.1536  -1.0583  -1.0245
 -1.0074  -0.9592  -0.9116  -0.9016  -0.8130  -0.7641  -0.7346  -0.7010
 -0.6611  -0.6406  -0.6103  -0.5879  -0.5795  -0.5730  -0.5671  -0.5511
 -0.5419  -0.5298  -0.5163  -0.5049  -0.4935  -0.4764  -0.4592  -0.4473
 -0.3544  -0.3435  -0.3151  -0.2756

          Ground-State Mulliken Net Atomic Charges

     Atom                 Charge (a.u.)
  ----------------------------------------
      1 C                    -0.076323
      2 C                    -0.327182
      3 C                    -0.019057
      4 H                     0.176609
      5 C                     0.066225
      6 S                    -0.183280
      7 C                    -0.270880
      8 H                     0.114385
      9 H                     0.105348
     10 H                     0.108613
     11 C                    -0.060391
     12 C                    -0.252569
     13 C                     0.028390
     14 H                     0.182039
     15 C                    -0.238994
     16 S                     0.007642
     17 C                    -0.271133
     18 H                     0.102417
     19 H                     0.108575
     20 H                     0.107648
     21 H                     0.196708
     22 H                     0.109752
     23 H                     0.111332
     24 H                     0.174125
  ----------------------------------------
  Sum of atomic charges =     0.000000

                    Cartesian Multipole Moments
 -----------------------------------------------------------------
    Charge (ESU x 10^10)
                -0.0000
    Dipole Moment (Debye)
         X       3.2648      Y       0.5893      Z       1.3844
       Tot       3.5948
    Quadrupole Moments (Debye-Ang)
        XX     -90.8291     XY      -0.5590     YY     -75.3135
        XZ       0.1069     YZ       1.0521     ZZ     -85.6839

 Total job time:  675.90s(wall), 663.08s(cpu)
        *  Thank you very much for using Q-Chem.  Have a nice day.  *
