 Q-Chem 5.4, Q-Chem, Inc., Pleasanton, CA (2021)
 Q-Chem 5.4.0 for Intel X86 EM64T Linux

User input:
--------------------------------------------------------------
$molecule
0 1
C	0.593324	-3.866725	0.498788
C	-0.469446	-3.703963	-0.393517
C	-0.817050	-2.357056	-0.685674
H	-0.998381	-4.561092	-0.837128
C	0.000000	-1.440664	0.000000
S	1.183149	-2.286957	0.992768
C	-1.931676	-1.978743	-1.621254
H	-2.425882	-2.878678	-2.035845
H	-1.563980	-1.376015	-2.477868
H	-2.711417	-1.375728	-1.110719
C	0.000000	0.000000	0.000000
C	0.747916	0.431772	1.099446
C	1.946425	1.123709	0.776721
H	0.428523	0.247378	2.136088
C	2.137531	1.234018	-0.612546
S	0.816154	0.471179	-1.486809
C	2.888455	1.667564	1.814609
H	2.519842	1.454746	2.836676
H	3.008896	2.767543	1.726239
H	3.901271	1.221850	1.726228
H	2.959587	1.708609	-1.161575
H	1.433894	-4.392713	0.032646
H	0.279954	-4.392347	1.407651
H	0.694299	-1.440937	-0.827254
$end

$rem
JOBTYPE		SP
EXCHANGE	HF
CORRELATION	pRIMP2
BASIS		cc-pvtz
METHOD		rimp2
AUX_BASIS	rimp2-cc-pvtz
SOLVENT_METHOD	PCM
PURECART	11111
SYMMETRY	false
MEM_TOTAL	110000
SCF_CONVERGENCE = 6
THRESH=10
$end

$solvent
dielectric 4.90
$end
--------------------------------------------------------------

             Standard Nuclear Orientation (Angstroms)
    I     Atom           X                Y                Z
 ----------------------------------------------------------------
    1      C       0.5933240000    -3.8667250000     0.4987880000
    2      C      -0.4694460000    -3.7039630000    -0.3935170000
    3      C      -0.8170500000    -2.3570560000    -0.6856740000
    4      H      -0.9983810000    -4.5610920000    -0.8371280000
    5      C       0.0000000000    -1.4406640000     0.0000000000
    6      S       1.1831490000    -2.2869570000     0.9927680000
    7      C      -1.9316760000    -1.9787430000    -1.6212540000
    8      H      -2.4258820000    -2.8786780000    -2.0358450000
    9      H      -1.5639800000    -1.3760150000    -2.4778680000
   10      H      -2.7114170000    -1.3757280000    -1.1107190000
   11      C       0.0000000000     0.0000000000     0.0000000000
   12      C       0.7479160000     0.4317720000     1.0994460000
   13      C       1.9464250000     1.1237090000     0.7767210000
   14      H       0.4285230000     0.2473780000     2.1360880000
   15      C       2.1375310000     1.2340180000    -0.6125460000
   16      S       0.8161540000     0.4711790000    -1.4868090000
   17      C       2.8884550000     1.6675640000     1.8146090000
   18      H       2.5198420000     1.4547460000     2.8366760000
   19      H       3.0088960000     2.7675430000     1.7262390000
   20      H       3.9012710000     1.2218500000     1.7262280000
   21      H       2.9595870000     1.7086090000    -1.1615750000
   22      H       1.4338940000    -4.3927130000     0.0326460000
   23      H       0.2799540000    -4.3923470000     1.4076510000
   24      H       0.6942990000    -1.4409370000    -0.8272540000
 ----------------------------------------------------------------

   10   -1180.6736744625      8.50e-07  Convergence criterion met
 Total energy in the final basis set =    -1180.6736744625
        RIMP2         total energy =     -1182.6966973782 a.u.

                    Orbital Energies (a.u.)
 --------------------------------------------------------------

 Alpha MOs
 -- Occupied --
-91.9759 -91.9368 -11.2865 -11.2612 -11.2576 -11.2532 -11.2532 -11.2444
-11.2354 -11.2303 -11.2296 -11.2115  -8.9781  -8.9416  -6.6588  -6.6579
 -6.6576  -6.6230  -6.6219  -6.6206  -1.2106  -1.1528  -1.0612  -1.0244
 -1.0063  -0.9599  -0.9139  -0.9001  -0.8065  -0.7721  -0.7354  -0.7040
 -0.6506  -0.6351  -0.6155  -0.5886  -0.5818  -0.5751  -0.5680  -0.5510
 -0.5417  -0.5356  -0.5148  -0.5061  -0.4871  -0.4652  -0.4593  -0.4361
 -0.3530  -0.3458  -0.3252  -0.2553

          Ground-State Mulliken Net Atomic Charges

     Atom                 Charge (a.u.)
  ----------------------------------------
      1 C                    -0.089076
      2 C                    -0.328254
      3 C                    -0.076400
      4 H                     0.172388
      5 C                     0.106412
      6 S                    -0.199371
      7 C                    -0.279311
      8 H                     0.114301
      9 H                     0.102486
     10 H                     0.107285
     11 C                    -0.138324
     12 C                    -0.144697
     13 C                    -0.009398
     14 H                     0.195939
     15 C                    -0.175059
     16 S                    -0.002133
     17 C                    -0.268847
     18 H                     0.104328
     19 H                     0.111371
     20 H                     0.107700
     21 H                     0.202053
     22 H                     0.107404
     23 H                     0.105960
     24 H                     0.173241
  ----------------------------------------
  Sum of atomic charges =     0.000000

                    Cartesian Multipole Moments
 -----------------------------------------------------------------
    Charge (ESU x 10^10)
                -0.0000
    Dipole Moment (Debye)
         X       1.2693      Y       0.7703      Z      -0.2252
       Tot       1.5018
    Quadrupole Moments (Debye-Ang)
        XX     -81.9701     XY       7.3626     YY     -84.2648
        XZ       0.6054     YZ       4.1086     ZZ     -85.5495

 Total job time:  687.62s(wall), 685.30s(cpu)
        *  Thank you very much for using Q-Chem.  Have a nice day.  *
