 Q-Chem 5.4, Q-Chem, Inc., Pleasanton, CA (2021)
 Q-Chem 5.4.0 for Intel X86 EM64T Linux

User input:
--------------------------------------------------------------
$molecule
0 1
C	0.497696	-3.866725	0.594240
C	-0.393981	-3.703963	-0.469057
C	-0.685571	-2.357056	-0.817136
H	-0.837848	-4.561092	-0.997777
C	-0.000000	-1.440664	-0.000000
S	0.992782	-2.286957	1.183137
C	-1.620802	-1.978743	-1.932056
H	-2.035506	-2.878678	-2.426166
H	-1.109943	-1.376015	-2.711806
H	-2.477350	-1.375728	-1.564678
C	0.000000	0.000000	0.000000
C	0.075300	0.860311	1.099446
C	0.195935	2.238951	0.776721
H	0.043151	0.492916	2.136088
C	0.215188	2.458766	-0.612546
S	0.082160	0.938811	-1.486809
C	0.290762	3.322559	1.814609
H	0.253664	2.898542	2.836676
H	-0.541206	4.052140	1.726239
H	1.236797	3.896558	1.726228
H	0.297938	3.404370	-1.161575
H	1.406441	-4.392713	0.281143
H	0.031265	-4.392347	1.434879
H	-0.827402	-1.440391	0.694122
$end

$rem
JOBTYPE		SP
EXCHANGE	HF
CORRELATION	pRIMP2
BASIS		cc-pvtz
METHOD		rimp2
AUX_BASIS	rimp2-cc-pvtz
SOLVENT_METHOD	PCM
PURECART	11111
SYMMETRY	false
MEM_TOTAL	110000
SCF_CONVERGENCE = 6
THRESH=10
$end

$solvent
dielectric 4.90
$end
--------------------------------------------------------------

             Standard Nuclear Orientation (Angstroms)
    I     Atom           X                Y                Z
 ----------------------------------------------------------------
    1      C       0.4976960000    -3.8667250000     0.5942400000
    2      C      -0.3939810000    -3.7039630000    -0.4690570000
    3      C      -0.6855710000    -2.3570560000    -0.8171360000
    4      H      -0.8378480000    -4.5610920000    -0.9977770000
    5      C       0.0000000000    -1.4406640000     0.0000000000
    6      S       0.9927820000    -2.2869570000     1.1831370000
    7      C      -1.6208020000    -1.9787430000    -1.9320560000
    8      H      -2.0355060000    -2.8786780000    -2.4261660000
    9      H      -1.1099430000    -1.3760150000    -2.7118060000
   10      H      -2.4773500000    -1.3757280000    -1.5646780000
   11      C       0.0000000000     0.0000000000     0.0000000000
   12      C       0.0753000000     0.8603110000     1.0994460000
   13      C       0.1959350000     2.2389510000     0.7767210000
   14      H       0.0431510000     0.4929160000     2.1360880000
   15      C       0.2151880000     2.4587660000    -0.6125460000
   16      S       0.0821600000     0.9388110000    -1.4868090000
   17      C       0.2907620000     3.3225590000     1.8146090000
   18      H       0.2536640000     2.8985420000     2.8366760000
   19      H      -0.5412060000     4.0521400000     1.7262390000
   20      H       1.2367970000     3.8965580000     1.7262280000
   21      H       0.2979380000     3.4043700000    -1.1615750000
   22      H       1.4064410000    -4.3927130000     0.2811430000
   23      H       0.0312650000    -4.3923470000     1.4348790000
   24      H      -0.8274020000    -1.4403910000     0.6941220000
 ----------------------------------------------------------------

   10   -1180.7602973691      4.98e-07  Convergence criterion met
 Total energy in the final basis set =    -1180.7602973691
        RIMP2         total energy =     -1182.7658956381 a.u.

                    Orbital Energies (a.u.)
 --------------------------------------------------------------

 Alpha MOs
 -- Occupied --
-91.9819 -91.9443 -11.2872 -11.2647 -11.2584 -11.2573 -11.2507 -11.2426
-11.2355 -11.2326 -11.2283 -11.2218  -8.9817  -8.9489  -6.6627  -6.6621
 -6.6615  -6.6303  -6.6293  -6.6280  -1.2005  -1.1528  -1.0596  -1.0272
 -1.0074  -0.9570  -0.9147  -0.9012  -0.8153  -0.7691  -0.7248  -0.7007
 -0.6622  -0.6445  -0.6108  -0.5877  -0.5813  -0.5737  -0.5678  -0.5532
 -0.5421  -0.5335  -0.5145  -0.5074  -0.4898  -0.4834  -0.4584  -0.4491
 -0.3569  -0.3431  -0.3213  -0.2687

          Ground-State Mulliken Net Atomic Charges

     Atom                 Charge (a.u.)
  ----------------------------------------
      1 C                    -0.077532
      2 C                    -0.322976
      3 C                    -0.039029
      4 H                     0.177973
      5 C                     0.117862
      6 S                    -0.175830
      7 C                    -0.284790
      8 H                     0.116102
      9 H                     0.109603
     10 H                     0.109869
     11 C                    -0.047396
     12 C                    -0.293173
     13 C                     0.034548
     14 H                     0.183088
     15 C                    -0.261929
     16 S                     0.007712
     17 C                    -0.273035
     18 H                     0.102606
     19 H                     0.107787
     20 H                     0.108842
     21 H                     0.195337
     22 H                     0.113882
     23 H                     0.110744
     24 H                     0.179735
  ----------------------------------------
  Sum of atomic charges =     0.000000

                    Cartesian Multipole Moments
 -----------------------------------------------------------------
    Charge (ESU x 10^10)
                -0.0000
    Dipole Moment (Debye)
         X      -2.0913      Y      -0.0613      Z       0.1417
       Tot       2.0970
    Quadrupole Moments (Debye-Ang)
        XX     -91.8596     XY       4.3226     YY     -73.4813
        XZ       0.2492     YZ       2.9858     ZZ     -85.5641

 Total job time:  647.53s(wall), 644.12s(cpu)
        *  Thank you very much for using Q-Chem.  Have a nice day.  *
