 Q-Chem 5.4, Q-Chem, Inc., Pleasanton, CA (2021)
 Q-Chem 5.4.0 for Intel X86 EM64T Linux

User input:
--------------------------------------------------------------
$molecule
0 1
C	-0.670924	-3.866725	-0.388181
C	0.530648	-3.703963	0.306020
C	0.923703	-2.357056	0.533378
H	1.128579	-4.561092	0.651043
C	0.000000	-1.440664	0.000000
S	-1.337567	-2.286957	-0.772234
C	2.183857	-1.978743	1.261192
H	2.742548	-2.878678	1.583666
H	1.970497	-1.376015	2.168641
H	2.863099	-1.375728	0.623012
C	0.000000	0.000000	0.000000
C	0.223548	0.834165	1.099446
C	0.581748	2.170912	0.776721
H	0.128089	0.477934	2.136088
C	0.638880	2.384045	-0.612546
S	0.243934	0.910282	-1.486809
C	0.863301	3.221592	1.814609
H	0.753137	2.810458	2.836676
H	0.170663	4.084559	1.726239
H	1.894637	3.622593	1.726228
H	0.884575	3.300913	-1.161575
H	-1.417779	-4.392713	0.216843
H	-0.520136	-4.392347	-1.337652
H	-0.540100	-1.440937	0.935250
$end

$rem
JOBTYPE		SP
EXCHANGE	HF
CORRELATION	pRIMP2
BASIS		cc-pvtz
METHOD		rimp2
AUX_BASIS	rimp2-cc-pvtz
SOLVENT_METHOD	PCM
PURECART	11111
SYMMETRY	false
MEM_TOTAL	110000
SCF_CONVERGENCE = 6
THRESH=10
$end

$solvent
dielectric 4.90
$end
--------------------------------------------------------------

             Standard Nuclear Orientation (Angstroms)
    I     Atom           X                Y                Z
 ----------------------------------------------------------------
    1      C      -0.6709240000    -3.8667250000    -0.3881810000
    2      C       0.5306480000    -3.7039630000     0.3060200000
    3      C       0.9237030000    -2.3570560000     0.5333780000
    4      H       1.1285790000    -4.5610920000     0.6510430000
    5      C       0.0000000000    -1.4406640000     0.0000000000
    6      S      -1.3375670000    -2.2869570000    -0.7722340000
    7      C       2.1838570000    -1.9787430000     1.2611920000
    8      H       2.7425480000    -2.8786780000     1.5836660000
    9      H       1.9704970000    -1.3760150000     2.1686410000
   10      H       2.8630990000    -1.3757280000     0.6230120000
   11      C       0.0000000000     0.0000000000     0.0000000000
   12      C       0.2235480000     0.8341650000     1.0994460000
   13      C       0.5817480000     2.1709120000     0.7767210000
   14      H       0.1280890000     0.4779340000     2.1360880000
   15      C       0.6388800000     2.3840450000    -0.6125460000
   16      S       0.2439340000     0.9102820000    -1.4868090000
   17      C       0.8633010000     3.2215920000     1.8146090000
   18      H       0.7531370000     2.8104580000     2.8366760000
   19      H       0.1706630000     4.0845590000     1.7262390000
   20      H       1.8946370000     3.6225930000     1.7262280000
   21      H       0.8845750000     3.3009130000    -1.1615750000
   22      H      -1.4177790000    -4.3927130000     0.2168430000
   23      H      -0.5201360000    -4.3923470000    -1.3376520000
   24      H      -0.5401000000    -1.4409370000     0.9352500000
 ----------------------------------------------------------------

   10   -1180.7590465949      5.16e-07  Convergence criterion met
 Total energy in the final basis set =    -1180.7590465949
        RIMP2         total energy =     -1182.7655563954 a.u.

                    Orbital Energies (a.u.)
 --------------------------------------------------------------

 Alpha MOs
 -- Occupied --
-91.9804 -91.9416 -11.2812 -11.2643 -11.2637 -11.2563 -11.2512 -11.2427
-11.2411 -11.2317 -11.2295 -11.2199  -8.9804  -8.9463  -6.6613  -6.6608
 -6.6602  -6.6277  -6.6267  -6.6254  -1.1988  -1.1536  -1.0585  -1.0270
 -1.0043  -0.9615  -0.9121  -0.9011  -0.8157  -0.7606  -0.7334  -0.7052
 -0.6596  -0.6425  -0.6108  -0.5903  -0.5826  -0.5713  -0.5627  -0.5530
 -0.5418  -0.5305  -0.5171  -0.5067  -0.4875  -0.4792  -0.4616  -0.4472
 -0.3554  -0.3420  -0.3171  -0.2767

          Ground-State Mulliken Net Atomic Charges

     Atom                 Charge (a.u.)
  ----------------------------------------
      1 C                    -0.075860
      2 C                    -0.325262
      3 C                    -0.031662
      4 H                     0.176831
      5 C                     0.084463
      6 S                    -0.175773
      7 C                    -0.268707
      8 H                     0.116207
      9 H                     0.098019
     10 H                     0.112398
     11 C                    -0.066161
     12 C                    -0.266388
     13 C                     0.026628
     14 H                     0.189204
     15 C                    -0.241415
     16 S                     0.005833
     17 C                    -0.271800
     18 H                     0.101686
     19 H                     0.108774
     20 H                     0.108231
     21 H                     0.197027
     22 H                     0.111069
     23 H                     0.111202
     24 H                     0.175456
  ----------------------------------------
  Sum of atomic charges =     0.000000

                    Cartesian Multipole Moments
 -----------------------------------------------------------------
    Charge (ESU x 10^10)
                -0.0000
    Dipole Moment (Debye)
         X       2.1927      Y       0.4340      Z       3.4348
       Tot       4.0980
    Quadrupole Moments (Debye-Ang)
        XX     -90.7381     XY       0.3607     YY     -74.2195
        XZ       0.2020     YZ      -1.9218     ZZ     -86.3443

 Total job time:  658.65s(wall), 651.15s(cpu)
        *  Thank you very much for using Q-Chem.  Have a nice day.  *
