 Q-Chem 5.4, Q-Chem, Inc., Pleasanton, CA (2021)
 Q-Chem 5.4.0 for Intel X86 EM64T Linux

User input:
--------------------------------------------------------------
$molecule
0 1
C	-0.264439	-3.866725	-0.728625
C	0.209794	-3.703963	0.575519
C	0.364749	-2.357056	1.002336
H	0.446060	-4.561092	1.224165
C	-0.000000	-1.440664	-0.000000
S	-0.528253	-2.286957	-1.451336
C	0.862253	-1.978743	2.369885
H	1.082953	-2.878678	2.976034
H	0.115513	-1.376015	2.927887
H	1.792797	-1.375728	2.317620
C	0.000000	0.000000	0.000000
C	0.555137	0.661535	1.099446
C	1.444710	1.721658	0.776721
H	0.318072	0.379023	2.136088
C	1.586563	1.890676	-0.612546
S	0.605781	0.721904	-1.486809
C	2.143920	2.554907	1.814609
H	1.870325	2.228851	2.836676
H	1.880882	3.629742	1.726239
H	3.248098	2.482476	1.726228
H	2.196723	2.617806	-1.161575
H	-1.225465	-4.392713	-0.745219
H	0.461378	-4.392347	-1.359038
H	1.014907	-1.440391	-0.369273
$end

$rem
JOBTYPE		SP
EXCHANGE	HF
CORRELATION	pRIMP2
BASIS		cc-pvtz
METHOD		rimp2
AUX_BASIS	rimp2-cc-pvtz
SOLVENT_METHOD	PCM
PURECART	11111
SYMMETRY	false
MEM_TOTAL	110000
SCF_CONVERGENCE = 6
THRESH=10
$end

$solvent
dielectric 4.90
$end
--------------------------------------------------------------

             Standard Nuclear Orientation (Angstroms)
    I     Atom           X                Y                Z
 ----------------------------------------------------------------
    1      C      -0.2644390000    -3.8667250000    -0.7286250000
    2      C       0.2097940000    -3.7039630000     0.5755190000
    3      C       0.3647490000    -2.3570560000     1.0023360000
    4      H       0.4460600000    -4.5610920000     1.2241650000
    5      C       0.0000000000    -1.4406640000     0.0000000000
    6      S      -0.5282530000    -2.2869570000    -1.4513360000
    7      C       0.8622530000    -1.9787430000     2.3698850000
    8      H       1.0829530000    -2.8786780000     2.9760340000
    9      H       0.1155130000    -1.3760150000     2.9278870000
   10      H       1.7927970000    -1.3757280000     2.3176200000
   11      C       0.0000000000     0.0000000000     0.0000000000
   12      C       0.5551370000     0.6615350000     1.0994460000
   13      C       1.4447100000     1.7216580000     0.7767210000
   14      H       0.3180720000     0.3790230000     2.1360880000
   15      C       1.5865630000     1.8906760000    -0.6125460000
   16      S       0.6057810000     0.7219040000    -1.4868090000
   17      C       2.1439200000     2.5549070000     1.8146090000
   18      H       1.8703250000     2.2288510000     2.8366760000
   19      H       1.8808820000     3.6297420000     1.7262390000
   20      H       3.2480980000     2.4824760000     1.7262280000
   21      H       2.1967230000     2.6178060000    -1.1615750000
   22      H      -1.2254650000    -4.3927130000    -0.7452190000
   23      H       0.4613780000    -4.3923470000    -1.3590380000
   24      H       1.0149070000    -1.4403910000    -0.3692730000
 ----------------------------------------------------------------

   10   -1180.7248448043      6.33e-07  Convergence criterion met
 Total energy in the final basis set =    -1180.7248448043
        RIMP2         total energy =     -1182.7399776343 a.u.

                    Orbital Energies (a.u.)
 --------------------------------------------------------------

 Alpha MOs
 -- Occupied --
-91.9789 -91.9402 -11.2788 -11.2659 -11.2640 -11.2595 -11.2512 -11.2421
-11.2371 -11.2331 -11.2295 -11.2214  -8.9795  -8.9453  -6.6604  -6.6598
 -6.6592  -6.6267  -6.6256  -6.6244  -1.2054  -1.1532  -1.0607  -1.0322
 -0.9986  -0.9637  -0.9149  -0.9006  -0.8125  -0.7624  -0.7360  -0.7067
 -0.6541  -0.6458  -0.6115  -0.5947  -0.5827  -0.5709  -0.5623  -0.5513
 -0.5479  -0.5361  -0.5249  -0.5060  -0.4817  -0.4749  -0.4612  -0.4423
 -0.3581  -0.3423  -0.3249  -0.2634

          Ground-State Mulliken Net Atomic Charges

     Atom                 Charge (a.u.)
  ----------------------------------------
      1 C                    -0.076491
      2 C                    -0.313018
      3 C                    -0.060963
      4 H                     0.178456
      5 C                     0.105198
      6 S                    -0.188403
      7 C                    -0.294818
      8 H                     0.119007
      9 H                     0.104002
     10 H                     0.110549
     11 C                    -0.014195
     12 C                    -0.319848
     13 C                     0.053715
     14 H                     0.195565
     15 C                    -0.254888
     16 S                     0.006563
     17 C                    -0.271844
     18 H                     0.101614
     19 H                     0.111052
     20 H                     0.107782
     21 H                     0.197800
     22 H                     0.113109
     23 H                     0.110389
     24 H                     0.179664
  ----------------------------------------
  Sum of atomic charges =     0.000000

                    Cartesian Multipole Moments
 -----------------------------------------------------------------
    Charge (ESU x 10^10)
                -0.0000
    Dipole Moment (Debye)
         X       2.8594      Y      -0.1270      Z       3.6140
       Tot       4.6101
    Quadrupole Moments (Debye-Ang)
        XX     -87.4383     XY       2.7934     YY     -77.5497
        XZ       0.4889     YZ      -2.0447     ZZ     -85.6665

 Total job time:  684.61s(wall), 681.82s(cpu)
        *  Thank you very much for using Q-Chem.  Have a nice day.  *
