 Q-Chem 5.4, Q-Chem, Inc., Pleasanton, CA (2021)
 Q-Chem 5.4.0 for Intel X86 EM64T Linux

User input:
--------------------------------------------------------------
$molecule
0 1
C	0.264439	-3.866725	0.728625
C	-0.209794	-3.703963	-0.575519
C	-0.364749	-2.357056	-1.002336
H	-0.446060	-4.561092	-1.224165
C	0.000000	-1.440664	0.000000
S	0.528253	-2.286957	1.451336
C	-0.862253	-1.978743	-2.369885
H	-1.082953	-2.878678	-2.976034
H	-0.115513	-1.376015	-2.927887
H	-1.792797	-1.375728	-2.317620
C	0.000000	0.000000	0.000000
C	0.661577	0.555087	1.099446
C	1.721724	1.444630	0.776721
H	0.379056	0.318032	2.136088
C	1.890772	1.586449	-0.612546
S	0.721935	0.605744	-1.486809
C	2.555004	2.143805	1.814609
H	2.228946	1.870211	2.836676
H	2.482605	3.247987	1.726239
H	3.629830	1.880735	1.726228
H	2.617927	2.196579	-1.161575
H	1.225465	-4.392713	0.745219
H	-0.461378	-4.392347	1.359038
H	-1.014907	-1.440391	0.369273
$end

$rem
JOBTYPE		SP
EXCHANGE	HF
CORRELATION	pRIMP2
BASIS		cc-pvtz
METHOD		rimp2
AUX_BASIS	rimp2-cc-pvtz
SOLVENT_METHOD	PCM
PURECART	11111
SYMMETRY	false
MEM_TOTAL	110000
SCF_CONVERGENCE = 6
THRESH=10
$end

$solvent
dielectric 4.90
$end
--------------------------------------------------------------

             Standard Nuclear Orientation (Angstroms)
    I     Atom           X                Y                Z
 ----------------------------------------------------------------
    1      C       0.2644390000    -3.8667250000     0.7286250000
    2      C      -0.2097940000    -3.7039630000    -0.5755190000
    3      C      -0.3647490000    -2.3570560000    -1.0023360000
    4      H      -0.4460600000    -4.5610920000    -1.2241650000
    5      C       0.0000000000    -1.4406640000     0.0000000000
    6      S       0.5282530000    -2.2869570000     1.4513360000
    7      C      -0.8622530000    -1.9787430000    -2.3698850000
    8      H      -1.0829530000    -2.8786780000    -2.9760340000
    9      H      -0.1155130000    -1.3760150000    -2.9278870000
   10      H      -1.7927970000    -1.3757280000    -2.3176200000
   11      C       0.0000000000     0.0000000000     0.0000000000
   12      C       0.6615770000     0.5550870000     1.0994460000
   13      C       1.7217240000     1.4446300000     0.7767210000
   14      H       0.3790560000     0.3180320000     2.1360880000
   15      C       1.8907720000     1.5864490000    -0.6125460000
   16      S       0.7219350000     0.6057440000    -1.4868090000
   17      C       2.5550040000     2.1438050000     1.8146090000
   18      H       2.2289460000     1.8702110000     2.8366760000
   19      H       2.4826050000     3.2479870000     1.7262390000
   20      H       3.6298300000     1.8807350000     1.7262280000
   21      H       2.6179270000     2.1965790000    -1.1615750000
   22      H       1.2254650000    -4.3927130000     0.7452190000
   23      H      -0.4613780000    -4.3923470000     1.3590380000
   24      H      -1.0149070000    -1.4403910000     0.3692730000
 ----------------------------------------------------------------

   11   -1180.6978911859      4.66e-07  Convergence criterion met
 Total energy in the final basis set =    -1180.6978911859
        RIMP2         total energy =     -1182.7199405029 a.u.

                    Orbital Energies (a.u.)
 --------------------------------------------------------------

 Alpha MOs
 -- Occupied --
-91.9766 -91.9405 -11.2740 -11.2650 -11.2614 -11.2524 -11.2504 -11.2499
-11.2385 -11.2303 -11.2291 -11.2152  -8.9777  -8.9453  -6.6585  -6.6576
 -6.6572  -6.6265  -6.6255  -6.6242  -1.2025  -1.1535  -1.0585  -1.0268
 -1.0074  -0.9565  -0.9131  -0.9029  -0.8110  -0.7717  -0.7249  -0.7000
 -0.6554  -0.6423  -0.6126  -0.5891  -0.5846  -0.5767  -0.5669  -0.5524
 -0.5390  -0.5354  -0.5176  -0.5108  -0.4869  -0.4605  -0.4556  -0.4405
 -0.3568  -0.3382  -0.3268  -0.2567

          Ground-State Mulliken Net Atomic Charges

     Atom                 Charge (a.u.)
  ----------------------------------------
      1 C                    -0.081599
      2 C                    -0.336962
      3 C                    -0.051185
      4 H                     0.175938
      5 C                     0.100893
      6 S                    -0.192791
      7 C                    -0.297361
      8 H                     0.117265
      9 H                     0.111757
     10 H                     0.111893
     11 C                    -0.090430
     12 C                    -0.231333
     13 C                     0.029167
     14 H                     0.191168
     15 C                    -0.217967
     16 S                     0.012108
     17 C                    -0.268234
     18 H                     0.103245
     19 H                     0.108409
     20 H                     0.107734
     21 H                     0.197222
     22 H                     0.109560
     23 H                     0.109478
     24 H                     0.182024
  ----------------------------------------
  Sum of atomic charges =     0.000000

                    Cartesian Multipole Moments
 -----------------------------------------------------------------
    Charge (ESU x 10^10)
                -0.0000
    Dipole Moment (Debye)
         X       0.2471      Y       0.4484      Z      -0.3241
       Tot       0.6059
    Quadrupole Moments (Debye-Ang)
        XX     -85.2001     XY       8.1868     YY     -80.9463
        XZ       0.6485     YZ       3.6493     ZZ     -85.1718

 Total job time:  731.02s(wall), 728.10s(cpu)
        *  Thank you very much for using Q-Chem.  Have a nice day.  *
