 Q-Chem 5.4, Q-Chem, Inc., Pleasanton, CA (2021)
 Q-Chem 5.4.0 for Intel X86 EM64T Linux

User input:
--------------------------------------------------------------
$molecule
0 1
C	0.775127	-3.866725	0.000713
C	-0.612565	-3.703963	0.000302
C	-1.066639	-2.357056	-0.000067
H	-1.302900	-4.561092	0.000470
C	-0.000000	-1.440664	-0.000000
S	1.544483	-2.286957	-0.000009
C	-2.521872	-1.978743	-0.000295
H	-3.166949	-2.878678	-0.000221
H	-2.790821	-1.376015	-0.892850
H	-2.791023	-1.375728	0.892005
C	0.000000	0.000000	0.000000
C	0.075300	0.860311	1.099446
C	0.195935	2.238951	0.776721
H	0.043151	0.492916	2.136088
C	0.215188	2.458766	-0.612546
S	0.082160	0.938811	-1.486809
C	0.290762	3.322559	1.814609
H	0.253664	2.898542	2.836676
H	-0.541206	4.052140	1.726239
H	1.236797	3.896558	1.726228
H	0.297938	3.404370	-1.161575
H	1.119411	-4.392713	-0.896681
H	1.119277	-4.392347	0.898372
H	0.000115	-1.440937	-1.080000
$end

$rem
JOBTYPE		SP
EXCHANGE	HF
CORRELATION	pRIMP2
BASIS		cc-pvtz
METHOD		rimp2
AUX_BASIS	rimp2-cc-pvtz
SOLVENT_METHOD	PCM
PURECART	11111
SYMMETRY	false
MEM_TOTAL	110000
SCF_CONVERGENCE = 6
THRESH=10
$end

$solvent
dielectric 4.90
$end
--------------------------------------------------------------

             Standard Nuclear Orientation (Angstroms)
    I     Atom           X                Y                Z
 ----------------------------------------------------------------
    1      C       0.7751270000    -3.8667250000     0.0007130000
    2      C      -0.6125650000    -3.7039630000     0.0003020000
    3      C      -1.0666390000    -2.3570560000    -0.0000670000
    4      H      -1.3029000000    -4.5610920000     0.0004700000
    5      C       0.0000000000    -1.4406640000     0.0000000000
    6      S       1.5444830000    -2.2869570000    -0.0000090000
    7      C      -2.5218720000    -1.9787430000    -0.0002950000
    8      H      -3.1669490000    -2.8786780000    -0.0002210000
    9      H      -2.7908210000    -1.3760150000    -0.8928500000
   10      H      -2.7910230000    -1.3757280000     0.8920050000
   11      C       0.0000000000     0.0000000000     0.0000000000
   12      C       0.0753000000     0.8603110000     1.0994460000
   13      C       0.1959350000     2.2389510000     0.7767210000
   14      H       0.0431510000     0.4929160000     2.1360880000
   15      C       0.2151880000     2.4587660000    -0.6125460000
   16      S       0.0821600000     0.9388110000    -1.4868090000
   17      C       0.2907620000     3.3225590000     1.8146090000
   18      H       0.2536640000     2.8985420000     2.8366760000
   19      H      -0.5412060000     4.0521400000     1.7262390000
   20      H       1.2367970000     3.8965580000     1.7262280000
   21      H       0.2979380000     3.4043700000    -1.1615750000
   22      H       1.1194110000    -4.3927130000    -0.8966810000
   23      H       1.1192770000    -4.3923470000     0.8983720000
   24      H       0.0001150000    -1.4409370000    -1.0800000000
 ----------------------------------------------------------------

   10   -1180.7597932406      5.03e-07  Convergence criterion met
 Total energy in the final basis set =    -1180.7597932406
        RIMP2         total energy =     -1182.7639552479 a.u.

                    Orbital Energies (a.u.)
 --------------------------------------------------------------

 Alpha MOs
 -- Occupied --
-91.9867 -91.9412 -11.2785 -11.2654 -11.2625 -11.2550 -11.2509 -11.2405
-11.2386 -11.2314 -11.2287 -11.2186  -8.9863  -8.9458  -6.6672  -6.6667
 -6.6661  -6.6272  -6.6262  -6.6249  -1.1979  -1.1536  -1.0585  -1.0261
 -1.0028  -0.9627  -0.9129  -0.9003  -0.8129  -0.7629  -0.7408  -0.7034
 -0.6538  -0.6338  -0.6108  -0.5876  -0.5770  -0.5726  -0.5686  -0.5539
 -0.5426  -0.5298  -0.5125  -0.5057  -0.4907  -0.4822  -0.4640  -0.4482
 -0.3564  -0.3407  -0.3117  -0.2827

          Ground-State Mulliken Net Atomic Charges

     Atom                 Charge (a.u.)
  ----------------------------------------
      1 C                    -0.076901
      2 C                    -0.328811
      3 C                    -0.030713
      4 H                     0.176241
      5 C                     0.116923
      6 S                    -0.176132
      7 C                    -0.265479
      8 H                     0.112306
      9 H                     0.101708
     10 H                     0.105406
     11 C                    -0.119660
     12 C                    -0.220717
     13 C                     0.019565
     14 H                     0.185358
     15 C                    -0.244913
     16 S                     0.016423
     17 C                    -0.272347
     18 H                     0.102923
     19 H                     0.107463
     20 H                     0.108386
     21 H                     0.198841
     22 H                     0.110567
     23 H                     0.112824
     24 H                     0.160741
  ----------------------------------------
  Sum of atomic charges =     0.000000

                    Cartesian Multipole Moments
 -----------------------------------------------------------------
    Charge (ESU x 10^10)
                -0.0000
    Dipole Moment (Debye)
         X      -2.2509      Y       0.7377      Z       0.7175
       Tot       2.4750
    Quadrupole Moments (Debye-Ang)
        XX     -91.6693     XY       4.5526     YY     -73.7286
        XZ      -0.2067     YZ       2.3146     ZZ     -85.8887

 Total job time:  655.58s(wall), 643.68s(cpu)
        *  Thank you very much for using Q-Chem.  Have a nice day.  *
