 Q-Chem 5.4, Q-Chem, Inc., Pleasanton, CA (2021)
 Q-Chem 5.4.0 for Intel X86 EM64T Linux

User input:
--------------------------------------------------------------
$molecule
0 1
C	-0.594240	-3.866725	0.497696
C	0.469057	-3.703963	-0.393981
C	0.817136	-2.357056	-0.685571
H	0.997777	-4.561092	-0.837848
C	-0.000000	-1.440664	-0.000000
S	-1.183137	-2.286957	0.992782
C	1.932056	-1.978743	-1.620802
H	2.426166	-2.878678	-2.035506
H	2.711806	-1.376015	-1.109943
H	1.564678	-1.375728	-2.477350
C	0.000000	0.000000	0.000000
C	0.555137	0.661535	1.099446
C	1.444710	1.721658	0.776721
H	0.318072	0.379023	2.136088
C	1.586563	1.890676	-0.612546
S	0.605781	0.721904	-1.486809
C	2.143920	2.554907	1.814609
H	1.870325	2.228851	2.836676
H	1.880882	3.629742	1.726239
H	3.248098	2.482476	1.726228
H	2.196723	2.617806	-1.161575
H	-0.281143	-4.392713	1.406441
H	-1.434879	-4.392347	0.031265
H	0.694122	-1.440937	0.827402
$end

$rem
JOBTYPE		SP
EXCHANGE	HF
CORRELATION	pRIMP2
BASIS		cc-pvtz
METHOD		rimp2
AUX_BASIS	rimp2-cc-pvtz
SOLVENT_METHOD	PCM
PURECART	11111
SYMMETRY	false
MEM_TOTAL	110000
SCF_CONVERGENCE = 6
THRESH=10
$end

$solvent
dielectric 4.90
$end
--------------------------------------------------------------

             Standard Nuclear Orientation (Angstroms)
    I     Atom           X                Y                Z
 ----------------------------------------------------------------
    1      C      -0.5942400000    -3.8667250000     0.4976960000
    2      C       0.4690570000    -3.7039630000    -0.3939810000
    3      C       0.8171360000    -2.3570560000    -0.6855710000
    4      H       0.9977770000    -4.5610920000    -0.8378480000
    5      C       0.0000000000    -1.4406640000     0.0000000000
    6      S      -1.1831370000    -2.2869570000     0.9927820000
    7      C       1.9320560000    -1.9787430000    -1.6208020000
    8      H       2.4261660000    -2.8786780000    -2.0355060000
    9      H       2.7118060000    -1.3760150000    -1.1099430000
   10      H       1.5646780000    -1.3757280000    -2.4773500000
   11      C       0.0000000000     0.0000000000     0.0000000000
   12      C       0.5551370000     0.6615350000     1.0994460000
   13      C       1.4447100000     1.7216580000     0.7767210000
   14      H       0.3180720000     0.3790230000     2.1360880000
   15      C       1.5865630000     1.8906760000    -0.6125460000
   16      S       0.6057810000     0.7219040000    -1.4868090000
   17      C       2.1439200000     2.5549070000     1.8146090000
   18      H       1.8703250000     2.2288510000     2.8366760000
   19      H       1.8808820000     3.6297420000     1.7262390000
   20      H       3.2480980000     2.4824760000     1.7262280000
   21      H       2.1967230000     2.6178060000    -1.1615750000
   22      H      -0.2811430000    -4.3927130000     1.4064410000
   23      H      -1.4348790000    -4.3923470000     0.0312650000
   24      H       0.6941220000    -1.4409370000     0.8274020000
 ----------------------------------------------------------------

   10   -1180.7145131309      8.30e-07  Convergence criterion met
 Total energy in the final basis set =    -1180.7145131309
        RIMP2         total energy =     -1182.7332677891 a.u.

                    Orbital Energies (a.u.)
 --------------------------------------------------------------

 Alpha MOs
 -- Occupied --
-91.9819 -91.9371 -11.2741 -11.2688 -11.2624 -11.2521 -11.2517 -11.2427
-11.2390 -11.2296 -11.2274 -11.2168  -8.9823  -8.9421  -6.6630  -6.6624
 -6.6620  -6.6235  -6.6224  -6.6212  -1.2024  -1.1528  -1.0591  -1.0239
 -1.0086  -0.9571  -0.9102  -0.9033  -0.8083  -0.7674  -0.7323  -0.6995
 -0.6617  -0.6400  -0.6100  -0.5847  -0.5822  -0.5749  -0.5675  -0.5537
 -0.5426  -0.5290  -0.5177  -0.5093  -0.4926  -0.4644  -0.4555  -0.4439
 -0.3528  -0.3431  -0.3187  -0.2638

          Ground-State Mulliken Net Atomic Charges

     Atom                 Charge (a.u.)
  ----------------------------------------
      1 C                    -0.070656
      2 C                    -0.332641
      3 C                    -0.038240
      4 H                     0.176850
      5 C                     0.067897
      6 S                    -0.199270
      7 C                    -0.280830
      8 H                     0.111918
      9 H                     0.110033
     10 H                     0.113496
     11 C                    -0.069356
     12 C                    -0.225209
     13 C                     0.014472
     14 H                     0.185567
     15 C                    -0.235586
     16 S                     0.020469
     17 C                    -0.268588
     18 H                     0.102801
     19 H                     0.107962
     20 H                     0.105849
     21 H                     0.197724
     22 H                     0.108097
     23 H                     0.110017
     24 H                     0.187223
  ----------------------------------------
  Sum of atomic charges =     0.000000

                    Cartesian Multipole Moments
 -----------------------------------------------------------------
    Charge (ESU x 10^10)
                -0.0000
    Dipole Moment (Debye)
         X       3.8667      Y       0.5156      Z       0.2965
       Tot       3.9121
    Quadrupole Moments (Debye-Ang)
        XX     -87.7431     XY       1.7091     YY     -79.6777
        XZ       0.5139     YZ       2.0963     ZZ     -85.0647

 Total job time:  678.39s(wall), 675.79s(cpu)
        *  Thank you very much for using Q-Chem.  Have a nice day.  *
