 Q-Chem 5.4, Q-Chem, Inc., Pleasanton, CA (2021)
 Q-Chem 5.4.0 for Intel X86 EM64T Linux

User input:
--------------------------------------------------------------
$molecule
0 1
C	-0.670924	-3.866725	-0.388181
C	0.530648	-3.703963	0.306020
C	0.923703	-2.357056	0.533378
H	1.128579	-4.561092	0.651043
C	0.000000	-1.440664	0.000000
S	-1.337567	-2.286957	-0.772234
C	2.183857	-1.978743	1.261192
H	2.742548	-2.878678	1.583666
H	1.970497	-1.376015	2.168641
H	2.863099	-1.375728	0.623012
C	0.000000	0.000000	0.000000
C	0.661577	0.555087	1.099446
C	1.721724	1.444630	0.776721
H	0.379056	0.318032	2.136088
C	1.890772	1.586449	-0.612546
S	0.721935	0.605744	-1.486809
C	2.555004	2.143805	1.814609
H	2.228946	1.870211	2.836676
H	2.482605	3.247987	1.726239
H	3.629830	1.880735	1.726228
H	2.617927	2.196579	-1.161575
H	-1.417779	-4.392713	0.216843
H	-0.520136	-4.392347	-1.337652
H	-0.540100	-1.440937	0.935250
$end

$rem
JOBTYPE		SP
EXCHANGE	HF
CORRELATION	pRIMP2
BASIS		cc-pvtz
METHOD		rimp2
AUX_BASIS	rimp2-cc-pvtz
SOLVENT_METHOD	PCM
PURECART	11111
SYMMETRY	false
MEM_TOTAL	110000
SCF_CONVERGENCE = 6
THRESH=10
$end

$solvent
dielectric 4.90
$end
--------------------------------------------------------------

             Standard Nuclear Orientation (Angstroms)
    I     Atom           X                Y                Z
 ----------------------------------------------------------------
    1      C      -0.6709240000    -3.8667250000    -0.3881810000
    2      C       0.5306480000    -3.7039630000     0.3060200000
    3      C       0.9237030000    -2.3570560000     0.5333780000
    4      H       1.1285790000    -4.5610920000     0.6510430000
    5      C       0.0000000000    -1.4406640000     0.0000000000
    6      S      -1.3375670000    -2.2869570000    -0.7722340000
    7      C       2.1838570000    -1.9787430000     1.2611920000
    8      H       2.7425480000    -2.8786780000     1.5836660000
    9      H       1.9704970000    -1.3760150000     2.1686410000
   10      H       2.8630990000    -1.3757280000     0.6230120000
   11      C       0.0000000000     0.0000000000     0.0000000000
   12      C       0.6615770000     0.5550870000     1.0994460000
   13      C       1.7217240000     1.4446300000     0.7767210000
   14      H       0.3790560000     0.3180320000     2.1360880000
   15      C       1.8907720000     1.5864490000    -0.6125460000
   16      S       0.7219350000     0.6057440000    -1.4868090000
   17      C       2.5550040000     2.1438050000     1.8146090000
   18      H       2.2289460000     1.8702110000     2.8366760000
   19      H       2.4826050000     3.2479870000     1.7262390000
   20      H       3.6298300000     1.8807350000     1.7262280000
   21      H       2.6179270000     2.1965790000    -1.1615750000
   22      H      -1.4177790000    -4.3927130000     0.2168430000
   23      H      -0.5201360000    -4.3923470000    -1.3376520000
   24      H      -0.5401000000    -1.4409370000     0.9352500000
 ----------------------------------------------------------------

   10   -1180.7122430210      8.19e-07  Convergence criterion met
 Total energy in the final basis set =    -1180.7122430210
        RIMP2         total energy =     -1182.7318050267 a.u.

                    Orbital Energies (a.u.)
 --------------------------------------------------------------

 Alpha MOs
 -- Occupied --
-91.9772 -91.9348 -11.2818 -11.2605 -11.2599 -11.2578 -11.2531 -11.2515
-11.2373 -11.2316 -11.2302 -11.2166  -8.9780  -8.9397  -6.6588  -6.6580
 -6.6577  -6.6211  -6.6201  -6.6189  -1.2022  -1.1545  -1.0586  -1.0265
 -1.0037  -0.9632  -0.9109  -0.9025  -0.8103  -0.7595  -0.7403  -0.7073
 -0.6537  -0.6396  -0.6132  -0.5924  -0.5862  -0.5717  -0.5622  -0.5552
 -0.5405  -0.5287  -0.5229  -0.5086  -0.4845  -0.4652  -0.4519  -0.4429
 -0.3513  -0.3417  -0.3188  -0.2734

          Ground-State Mulliken Net Atomic Charges

     Atom                 Charge (a.u.)
  ----------------------------------------
      1 C                    -0.072694
      2 C                    -0.327550
      3 C                    -0.047636
      4 H                     0.175931
      5 C                     0.099343
      6 S                    -0.199834
      7 C                    -0.294465
      8 H                     0.121625
      9 H                     0.101957
     10 H                     0.115850
     11 C                    -0.122651
     12 C                    -0.206078
     13 C                     0.012363
     14 H                     0.196315
     15 C                    -0.189629
     16 S                     0.006624
     17 C                    -0.273190
     18 H                     0.103319
     19 H                     0.115038
     20 H                     0.107128
     21 H                     0.200504
     22 H                     0.105555
     23 H                     0.108054
     24 H                     0.164121
  ----------------------------------------
  Sum of atomic charges =     0.000000

                    Cartesian Multipole Moments
 -----------------------------------------------------------------
    Charge (ESU x 10^10)
                -0.0000
    Dipole Moment (Debye)
         X       3.9359      Y       0.8536      Z       3.6965
       Tot       5.4666
    Quadrupole Moments (Debye-Ang)
        XX     -84.5603     XY       3.4325     YY     -80.8404
        XZ       0.5463     YZ      -2.4128     ZZ     -86.0779

 Total job time:  706.76s(wall), 703.30s(cpu)
        *  Thank you very much for using Q-Chem.  Have a nice day.  *
