 Q-Chem 5.4, Q-Chem, Inc., Pleasanton, CA (2021)
 Q-Chem 5.4.0 for Intel X86 EM64T Linux

User input:
--------------------------------------------------------------
$molecule
0 1
C	-0.763475	-3.866725	0.133897
C	0.603206	-3.703963	-0.106669
C	1.050446	-2.357056	-0.185154
H	1.283024	-4.561092	-0.226709
C	-0.000000	-1.440664	-0.000000
S	-1.521018	-2.286957	0.268206
C	2.483610	-1.978743	-0.437628
H	3.118875	-2.878678	-0.549717
H	2.903464	-1.376015	0.394664
H	2.593726	-1.375728	-1.363110
C	0.000000	0.000000	0.000000
C	0.365003	0.782674	1.099446
C	0.949885	2.036912	0.776721
H	0.209135	0.448431	2.136088
C	1.043159	2.236886	-0.612546
S	0.398297	0.854094	-1.486809
C	1.409609	3.022738	1.814609
H	1.229726	2.636980	2.836676
H	0.877346	3.992870	1.726239
H	2.494910	3.238558	1.726228
H	1.444334	3.097160	-1.161575
H	-0.946698	-4.392713	1.077442
H	-1.258274	-4.392347	-0.690363
H	-0.187427	-1.440391	-1.063612
$end

$rem
JOBTYPE		SP
EXCHANGE	HF
CORRELATION	pRIMP2
BASIS		cc-pvtz
METHOD		rimp2
AUX_BASIS	rimp2-cc-pvtz
SOLVENT_METHOD	PCM
PURECART	11111
SYMMETRY	false
MEM_TOTAL	110000
SCF_CONVERGENCE = 6
THRESH=10
$end

$solvent
dielectric 4.90
$end
--------------------------------------------------------------

             Standard Nuclear Orientation (Angstroms)
    I     Atom           X                Y                Z
 ----------------------------------------------------------------
    1      C      -0.7634750000    -3.8667250000     0.1338970000
    2      C       0.6032060000    -3.7039630000    -0.1066690000
    3      C       1.0504460000    -2.3570560000    -0.1851540000
    4      H       1.2830240000    -4.5610920000    -0.2267090000
    5      C       0.0000000000    -1.4406640000     0.0000000000
    6      S      -1.5210180000    -2.2869570000     0.2682060000
    7      C       2.4836100000    -1.9787430000    -0.4376280000
    8      H       3.1188750000    -2.8786780000    -0.5497170000
    9      H       2.9034640000    -1.3760150000     0.3946640000
   10      H       2.5937260000    -1.3757280000    -1.3631100000
   11      C       0.0000000000     0.0000000000     0.0000000000
   12      C       0.3650030000     0.7826740000     1.0994460000
   13      C       0.9498850000     2.0369120000     0.7767210000
   14      H       0.2091350000     0.4484310000     2.1360880000
   15      C       1.0431590000     2.2368860000    -0.6125460000
   16      S       0.3982970000     0.8540940000    -1.4868090000
   17      C       1.4096090000     3.0227380000     1.8146090000
   18      H       1.2297260000     2.6369800000     2.8366760000
   19      H       0.8773460000     3.9928700000     1.7262390000
   20      H       2.4949100000     3.2385580000     1.7262280000
   21      H       1.4443340000     3.0971600000    -1.1615750000
   22      H      -0.9466980000    -4.3927130000     1.0774420000
   23      H      -1.2582740000    -4.3923470000    -0.6903630000
   24      H      -0.1874270000    -1.4403910000    -1.0636120000
 ----------------------------------------------------------------

   10   -1180.7465017590      5.52e-07  Convergence criterion met
 Total energy in the final basis set =    -1180.7465017590
        RIMP2         total energy =     -1182.7548051161 a.u.

                    Orbital Energies (a.u.)
 --------------------------------------------------------------

 Alpha MOs
 -- Occupied --
-91.9864 -91.9388 -11.2734 -11.2701 -11.2618 -11.2535 -11.2517 -11.2424
-11.2392 -11.2300 -11.2294 -11.2179  -8.9862  -8.9435  -6.6670  -6.6665
 -6.6659  -6.6249  -6.6238  -6.6226  -1.1983  -1.1540  -1.0587  -1.0242
 -1.0037  -0.9635  -0.9123  -0.9007  -0.8102  -0.7647  -0.7400  -0.7055
 -0.6525  -0.6323  -0.6115  -0.5873  -0.5754  -0.5746  -0.5705  -0.5534
 -0.5425  -0.5281  -0.5169  -0.5041  -0.4912  -0.4752  -0.4637  -0.4456
 -0.3540  -0.3429  -0.3134  -0.2796

          Ground-State Mulliken Net Atomic Charges

     Atom                 Charge (a.u.)
  ----------------------------------------
      1 C                    -0.075377
      2 C                    -0.331792
      3 C                    -0.015170
      4 H                     0.175512
      5 C                     0.073621
      6 S                    -0.183441
      7 C                    -0.268900
      8 H                     0.114591
      9 H                     0.107358
     10 H                     0.103831
     11 C                    -0.089122
     12 C                    -0.236635
     13 C                     0.031140
     14 H                     0.186025
     15 C                    -0.235867
     16 S                     0.013002
     17 C                    -0.270861
     18 H                     0.103323
     19 H                     0.108142
     20 H                     0.106927
     21 H                     0.199521
     22 H                     0.111011
     23 H                     0.108687
     24 H                     0.164475
  ----------------------------------------
  Sum of atomic charges =     0.000000

                    Cartesian Multipole Moments
 -----------------------------------------------------------------
    Charge (ESU x 10^10)
                -0.0000
    Dipole Moment (Debye)
         X       3.2352      Y       0.9187      Z       0.3307
       Tot       3.3794
    Quadrupole Moments (Debye-Ang)
        XX     -89.8350     XY       0.9025     YY     -75.8969
        XZ       0.6432     YZ       2.8189     ZZ     -85.8669

 Total job time:  662.87s(wall), 658.52s(cpu)
        *  Thank you very much for using Q-Chem.  Have a nice day.  *
