 Q-Chem 5.4, Q-Chem, Inc., Pleasanton, CA (2021)
 Q-Chem 5.4.0 for Intel X86 EM64T Linux

User input:
--------------------------------------------------------------
$molecule
0 1
C	0.728625	-3.866725	-0.264439
C	-0.575519	-3.703963	0.209794
C	-1.002336	-2.357056	0.364749
H	-1.224165	-4.561092	0.446060
C	0.000000	-1.440664	0.000000
S	1.451336	-2.286957	-0.528253
C	-2.369885	-1.978743	0.862253
H	-2.976034	-2.878678	1.082953
H	-2.927887	-1.376015	0.115513
H	-2.317620	-1.375728	1.792797
C	0.000000	0.000000	0.000000
C	0.661577	0.555087	1.099446
C	1.721724	1.444630	0.776721
H	0.379056	0.318032	2.136088
C	1.890772	1.586449	-0.612546
S	0.721935	0.605744	-1.486809
C	2.555004	2.143805	1.814609
H	2.228946	1.870211	2.836676
H	2.482605	3.247987	1.726239
H	3.629830	1.880735	1.726228
H	2.617927	2.196579	-1.161575
H	0.745219	-4.392713	-1.225465
H	1.359038	-4.392347	0.461378
H	-0.369273	-1.440937	-1.014907
$end

$rem
JOBTYPE		SP
EXCHANGE	HF
CORRELATION	pRIMP2
BASIS		cc-pvtz
METHOD		rimp2
AUX_BASIS	rimp2-cc-pvtz
SOLVENT_METHOD	PCM
PURECART	11111
SYMMETRY	false
MEM_TOTAL	110000
SCF_CONVERGENCE = 6
THRESH=10
$end

$solvent
dielectric 4.90
$end
--------------------------------------------------------------

             Standard Nuclear Orientation (Angstroms)
    I     Atom           X                Y                Z
 ----------------------------------------------------------------
    1      C       0.7286250000    -3.8667250000    -0.2644390000
    2      C      -0.5755190000    -3.7039630000     0.2097940000
    3      C      -1.0023360000    -2.3570560000     0.3647490000
    4      H      -1.2241650000    -4.5610920000     0.4460600000
    5      C       0.0000000000    -1.4406640000     0.0000000000
    6      S       1.4513360000    -2.2869570000    -0.5282530000
    7      C      -2.3698850000    -1.9787430000     0.8622530000
    8      H      -2.9760340000    -2.8786780000     1.0829530000
    9      H      -2.9278870000    -1.3760150000     0.1155130000
   10      H      -2.3176200000    -1.3757280000     1.7927970000
   11      C       0.0000000000     0.0000000000     0.0000000000
   12      C       0.6615770000     0.5550870000     1.0994460000
   13      C       1.7217240000     1.4446300000     0.7767210000
   14      H       0.3790560000     0.3180320000     2.1360880000
   15      C       1.8907720000     1.5864490000    -0.6125460000
   16      S       0.7219350000     0.6057440000    -1.4868090000
   17      C       2.5550040000     2.1438050000     1.8146090000
   18      H       2.2289460000     1.8702110000     2.8366760000
   19      H       2.4826050000     3.2479870000     1.7262390000
   20      H       3.6298300000     1.8807350000     1.7262280000
   21      H       2.6179270000     2.1965790000    -1.1615750000
   22      H       0.7452190000    -4.3927130000    -1.2254650000
   23      H       1.3590380000    -4.3923470000     0.4613780000
   24      H      -0.3692730000    -1.4409370000    -1.0149070000
 ----------------------------------------------------------------

   10   -1180.7087647791      7.18e-07  Convergence criterion met
 Total energy in the final basis set =    -1180.7087647791
        RIMP2         total energy =     -1182.7251092920 a.u.

                    Orbital Energies (a.u.)
 --------------------------------------------------------------

 Alpha MOs
 -- Occupied --
-91.9825 -91.9337 -11.2827 -11.2572 -11.2562 -11.2524 -11.2512 -11.2495
-11.2363 -11.2296 -11.2294 -11.2128  -8.9830  -8.9389  -6.6638  -6.6631
 -6.6627  -6.6202  -6.6192  -6.6179  -1.2009  -1.1534  -1.0575  -1.0258
 -0.9995  -0.9645  -0.9088  -0.9009  -0.8099  -0.7570  -0.7478  -0.7031
 -0.6499  -0.6283  -0.6134  -0.5869  -0.5795  -0.5734  -0.5652  -0.5513
 -0.5413  -0.5320  -0.5068  -0.5060  -0.4890  -0.4697  -0.4601  -0.4441
 -0.3591  -0.3302  -0.3153  -0.2736

          Ground-State Mulliken Net Atomic Charges

     Atom                 Charge (a.u.)
  ----------------------------------------
      1 C                    -0.082030
      2 C                    -0.328421
      3 C                    -0.059335
      4 H                     0.173147
      5 C                     0.059891
      6 S                    -0.180013
      7 C                    -0.271893
      8 H                     0.112120
      9 H                     0.103193
     10 H                     0.102929
     11 C                    -0.142783
     12 C                    -0.127008
     13 C                    -0.007012
     14 H                     0.187867
     15 C                    -0.186483
     16 S                     0.019203
     17 C                    -0.269209
     18 H                     0.102456
     19 H                     0.107398
     20 H                     0.107002
     21 H                     0.201432
     22 H                     0.106073
     23 H                     0.110190
     24 H                     0.161287
  ----------------------------------------
  Sum of atomic charges =     0.000000

                    Cartesian Multipole Moments
 -----------------------------------------------------------------
    Charge (ESU x 10^10)
                -0.0000
    Dipole Moment (Debye)
         X      -0.2672      Y       1.0921      Z       1.6633
       Tot       2.0077
    Quadrupole Moments (Debye-Ang)
        XX     -84.9452     XY      10.0080     YY     -81.7342
        XZ       0.1576     YZ       0.5373     ZZ     -85.0667

 Total job time:  662.87s(wall), 660.25s(cpu)
        *  Thank you very much for using Q-Chem.  Have a nice day.  *
