 Q-Chem 5.4, Q-Chem, Inc., Pleasanton, CA (2021)
 Q-Chem 5.4.0 for Intel X86 EM64T Linux

User input:
--------------------------------------------------------------
$molecule
0 1
C	-0.775127	-3.866725	-0.000713
C	0.612565	-3.703963	-0.000302
C	1.066639	-2.357056	0.000067
H	1.302900	-4.561092	-0.000470
C	0.000000	-1.440664	0.000000
S	-1.544483	-2.286957	0.000009
C	2.521872	-1.978743	0.000295
H	3.166949	-2.878678	0.000221
H	2.790821	-1.376015	0.892850
H	2.791023	-1.375728	-0.892005
C	0.000000	0.000000	0.000000
C	0.295399	0.811508	1.099446
C	0.768742	2.111949	0.776721
H	0.169256	0.464952	2.136088
C	0.844232	2.319291	-0.612546
S	0.322342	0.885558	-1.486809
C	1.140796	3.134091	1.814609
H	0.995218	2.734123	2.836676
H	0.526006	4.054142	1.726239
H	2.203157	3.443680	1.726228
H	1.168902	3.211257	-1.161575
H	-1.119411	-4.392713	0.896681
H	-1.119277	-4.392347	-0.898372
H	-0.000115	-1.440937	1.080000
$end

$rem
JOBTYPE		SP
EXCHANGE	HF
CORRELATION	pRIMP2
BASIS		cc-pvtz
METHOD		rimp2
AUX_BASIS	rimp2-cc-pvtz
SOLVENT_METHOD	PCM
PURECART	11111
SYMMETRY	false
MEM_TOTAL	110000
SCF_CONVERGENCE = 6
THRESH=10
$end

$solvent
dielectric 4.90
$end
--------------------------------------------------------------

             Standard Nuclear Orientation (Angstroms)
    I     Atom           X                Y                Z
 ----------------------------------------------------------------
    1      C      -0.7751270000    -3.8667250000    -0.0007130000
    2      C       0.6125650000    -3.7039630000    -0.0003020000
    3      C       1.0666390000    -2.3570560000     0.0000670000
    4      H       1.3029000000    -4.5610920000    -0.0004700000
    5      C       0.0000000000    -1.4406640000     0.0000000000
    6      S      -1.5444830000    -2.2869570000     0.0000090000
    7      C       2.5218720000    -1.9787430000     0.0002950000
    8      H       3.1669490000    -2.8786780000     0.0002210000
    9      H       2.7908210000    -1.3760150000     0.8928500000
   10      H       2.7910230000    -1.3757280000    -0.8920050000
   11      C       0.0000000000     0.0000000000     0.0000000000
   12      C       0.2953990000     0.8115080000     1.0994460000
   13      C       0.7687420000     2.1119490000     0.7767210000
   14      H       0.1692560000     0.4649520000     2.1360880000
   15      C       0.8442320000     2.3192910000    -0.6125460000
   16      S       0.3223420000     0.8855580000    -1.4868090000
   17      C       1.1407960000     3.1340910000     1.8146090000
   18      H       0.9952180000     2.7341230000     2.8366760000
   19      H       0.5260060000     4.0541420000     1.7262390000
   20      H       2.2031570000     3.4436800000     1.7262280000
   21      H       1.1689020000     3.2112570000    -1.1615750000
   22      H      -1.1194110000    -4.3927130000     0.8966810000
   23      H      -1.1192770000    -4.3923470000    -0.8983720000
   24      H      -0.0001150000    -1.4409370000     1.0800000000
 ----------------------------------------------------------------

   10   -1180.7562526220      5.32e-07  Convergence criterion met
 Total energy in the final basis set =    -1180.7562526220
        RIMP2         total energy =     -1182.7631362021 a.u.

                    Orbital Energies (a.u.)
 --------------------------------------------------------------

 Alpha MOs
 -- Occupied --
-91.9804 -91.9386 -11.2782 -11.2681 -11.2627 -11.2544 -11.2515 -11.2465
-11.2397 -11.2309 -11.2299 -11.2191  -8.9805  -8.9435  -6.6614  -6.6608
 -6.6603  -6.6248  -6.6238  -6.6225  -1.1982  -1.1541  -1.0581  -1.0248
 -1.0065  -0.9605  -0.9113  -0.9016  -0.8136  -0.7614  -0.7371  -0.7027
 -0.6602  -0.6403  -0.6106  -0.5894  -0.5798  -0.5724  -0.5661  -0.5509
 -0.5416  -0.5288  -0.5170  -0.5051  -0.4924  -0.4764  -0.4599  -0.4469
 -0.3545  -0.3424  -0.3128  -0.2809

          Ground-State Mulliken Net Atomic Charges

     Atom                 Charge (a.u.)
  ----------------------------------------
      1 C                    -0.077906
      2 C                    -0.327513
      3 C                    -0.013649
      4 H                     0.176072
      5 C                     0.067428
      6 S                    -0.181997
      7 C                    -0.267460
      8 H                     0.114339
      9 H                     0.101740
     10 H                     0.108596
     11 C                    -0.063342
     12 C                    -0.256894
     13 C                     0.031544
     14 H                     0.182667
     15 C                    -0.234310
     16 S                     0.005082
     17 C                    -0.270934
     18 H                     0.102248
     19 H                     0.108609
     20 H                     0.107864
     21 H                     0.197515
     22 H                     0.110018
     23 H                     0.111067
     24 H                     0.169218
  ----------------------------------------
  Sum of atomic charges =     0.000000

                    Cartesian Multipole Moments
 -----------------------------------------------------------------
    Charge (ESU x 10^10)
                -0.0000
    Dipole Moment (Debye)
         X       3.1686      Y       0.7261      Z       2.3271
       Tot       3.9978
    Quadrupole Moments (Debye-Ang)
        XX     -90.6119     XY      -0.2391     YY     -75.0562
        XZ       0.0411     YZ      -0.3310     ZZ     -85.9886

 Total job time:  670.96s(wall), 663.37s(cpu)
        *  Thank you very much for using Q-Chem.  Have a nice day.  *
