 Q-Chem 5.4, Q-Chem, Inc., Pleasanton, CA (2021)
 Q-Chem 5.4.0 for Intel X86 EM64T Linux

User input:
--------------------------------------------------------------
$molecule
0 1
C	0.386946	-3.866725	0.671636
C	-0.306544	-3.703963	-0.530345
C	-0.533261	-2.357056	-0.923770
H	-0.651857	-4.561092	-1.128109
C	0.000000	-1.440664	0.000000
S	0.772250	-2.286957	1.337557
C	-1.260680	-1.978743	-2.184153
H	-1.583283	-2.878678	-2.742769
H	-0.622180	-1.376015	-2.863347
H	-2.168011	-1.375728	-1.971094
C	0.000000	0.000000	0.000000
C	0.223548	0.834165	1.099446
C	0.581748	2.170912	0.776721
H	0.128089	0.477934	2.136088
C	0.638880	2.384045	-0.612546
S	0.243934	0.910282	-1.486809
C	0.863301	3.221592	1.814609
H	0.753137	2.810458	2.836676
H	0.170663	4.084559	1.726239
H	1.894637	3.622593	1.726228
H	0.884575	3.300913	-1.161575
H	1.336254	-4.392713	0.521098
H	-0.218374	-4.392347	1.418509
H	0.935365	-1.440937	-0.539900
$end

$rem
JOBTYPE		SP
EXCHANGE	HF
CORRELATION	pRIMP2
BASIS		cc-pvtz
METHOD		rimp2
AUX_BASIS	rimp2-cc-pvtz
SOLVENT_METHOD	PCM
PURECART	11111
SYMMETRY	false
MEM_TOTAL	110000
SCF_CONVERGENCE = 6
THRESH=10
$end

$solvent
dielectric 4.90
$end
--------------------------------------------------------------

             Standard Nuclear Orientation (Angstroms)
    I     Atom           X                Y                Z
 ----------------------------------------------------------------
    1      C       0.3869460000    -3.8667250000     0.6716360000
    2      C      -0.3065440000    -3.7039630000    -0.5303450000
    3      C      -0.5332610000    -2.3570560000    -0.9237700000
    4      H      -0.6518570000    -4.5610920000    -1.1281090000
    5      C       0.0000000000    -1.4406640000     0.0000000000
    6      S       0.7722500000    -2.2869570000     1.3375570000
    7      C      -1.2606800000    -1.9787430000    -2.1841530000
    8      H      -1.5832830000    -2.8786780000    -2.7427690000
    9      H      -0.6221800000    -1.3760150000    -2.8633470000
   10      H      -2.1680110000    -1.3757280000    -1.9710940000
   11      C       0.0000000000     0.0000000000     0.0000000000
   12      C       0.2235480000     0.8341650000     1.0994460000
   13      C       0.5817480000     2.1709120000     0.7767210000
   14      H       0.1280890000     0.4779340000     2.1360880000
   15      C       0.6388800000     2.3840450000    -0.6125460000
   16      S       0.2439340000     0.9102820000    -1.4868090000
   17      C       0.8633010000     3.2215920000     1.8146090000
   18      H       0.7531370000     2.8104580000     2.8366760000
   19      H       0.1706630000     4.0845590000     1.7262390000
   20      H       1.8946370000     3.6225930000     1.7262280000
   21      H       0.8845750000     3.3009130000    -1.1615750000
   22      H       1.3362540000    -4.3927130000     0.5210980000
   23      H      -0.2183740000    -4.3923470000     1.4185090000
   24      H       0.9353650000    -1.4409370000    -0.5399000000
 ----------------------------------------------------------------

   10   -1180.7581311197      4.97e-07  Convergence criterion met
 Total energy in the final basis set =    -1180.7581311197
        RIMP2         total energy =     -1182.7631817518 a.u.

                    Orbital Energies (a.u.)
 --------------------------------------------------------------

 Alpha MOs
 -- Occupied --
-91.9814 -91.9455 -11.2876 -11.2641 -11.2606 -11.2577 -11.2502 -11.2431
-11.2336 -11.2331 -11.2278 -11.2227  -8.9816  -8.9499  -6.6626  -6.6620
 -6.6613  -6.6313  -6.6303  -6.6290  -1.2023  -1.1529  -1.0609  -1.0278
 -1.0057  -0.9582  -0.9160  -0.9011  -0.8141  -0.7715  -0.7231  -0.7038
 -0.6573  -0.6451  -0.6112  -0.5928  -0.5797  -0.5730  -0.5689  -0.5538
 -0.5427  -0.5343  -0.5146  -0.5084  -0.4871  -0.4855  -0.4603  -0.4459
 -0.3579  -0.3431  -0.3251  -0.2679

          Ground-State Mulliken Net Atomic Charges

     Atom                 Charge (a.u.)
  ----------------------------------------
      1 C                    -0.075722
      2 C                    -0.314013
      3 C                    -0.060159
      4 H                     0.177714
      5 C                     0.132772
      6 S                    -0.181630
      7 C                    -0.292242
      8 H                     0.117336
      9 H                     0.106104
     10 H                     0.116557
     11 C                    -0.018121
     12 C                    -0.333261
     13 C                     0.057168
     14 H                     0.181751
     15 C                    -0.271136
     16 S                     0.004759
     17 C                    -0.272095
     18 H                     0.102959
     19 H                     0.108192
     20 H                     0.109024
     21 H                     0.195824
     22 H                     0.112482
     23 H                     0.111425
     24 H                     0.184312
  ----------------------------------------
  Sum of atomic charges =     0.000000

                    Cartesian Multipole Moments
 -----------------------------------------------------------------
    Charge (ESU x 10^10)
                -0.0000
    Dipole Moment (Debye)
         X      -0.1083      Y      -0.2153      Z      -1.0469
       Tot       1.0743
    Quadrupole Moments (Debye-Ang)
        XX     -90.7408     XY       3.0471     YY     -73.5933
        XZ       0.6729     YZ       4.9657     ZZ     -86.0583

 Total job time:  643.93s(wall), 641.42s(cpu)
        *  Thank you very much for using Q-Chem.  Have a nice day.  *
