 Q-Chem 5.4, Q-Chem, Inc., Pleasanton, CA (2021)
 Q-Chem 5.4.0 for Intel X86 EM64T Linux

User input:
--------------------------------------------------------------
$molecule
0 1
C	0.670748	-3.808105	0.775127
C	0.642889	-3.647744	-0.612565
C	0.409365	-2.321236	-1.066639
H	0.791563	-4.491881	-1.302900
C	0.250169	-1.418777	0.000000
S	0.397135	-2.252211	1.544483
C	0.343896	-1.948630	-2.521872
H	0.500095	-2.834906	-3.166949
H	1.118228	-1.200068	-2.790821
H	-0.639561	-1.509723	-2.791023
C	0.000000	0.000000	0.000000
C	0.661577	0.555087	1.099446
C	1.721724	1.444630	0.776721
H	0.379056	0.318032	2.136088
C	1.890772	1.586449	-0.612546
S	0.721935	0.605744	-1.486809
C	2.555004	2.143805	1.814609
H	2.228946	1.870211	2.836676
H	2.482605	3.247987	1.726239
H	3.629830	1.880735	1.726228
H	2.617927	2.196579	-1.161575
H	1.645845	-4.170271	1.119411
H	-0.122001	-4.481618	1.119277
H	1.313809	-1.231506	0.000115
$end

$rem
JOBTYPE		SP
EXCHANGE	HF
CORRELATION	pRIMP2
BASIS		cc-pvtz
METHOD		rimp2
AUX_BASIS	rimp2-cc-pvtz
SOLVENT_METHOD	PCM
PURECART	11111
SYMMETRY	false
MEM_TOTAL	110000
SCF_CONVERGENCE = 6
THRESH=10
$end

$solvent
dielectric 4.90
$end
--------------------------------------------------------------

             Standard Nuclear Orientation (Angstroms)
    I     Atom           X                Y                Z
 ----------------------------------------------------------------
    1      C       0.6707480000    -3.8081050000     0.7751270000
    2      C       0.6428890000    -3.6477440000    -0.6125650000
    3      C       0.4093650000    -2.3212360000    -1.0666390000
    4      H       0.7915630000    -4.4918810000    -1.3029000000
    5      C       0.2501690000    -1.4187770000     0.0000000000
    6      S       0.3971350000    -2.2522110000     1.5444830000
    7      C       0.3438960000    -1.9486300000    -2.5218720000
    8      H       0.5000950000    -2.8349060000    -3.1669490000
    9      H       1.1182280000    -1.2000680000    -2.7908210000
   10      H      -0.6395610000    -1.5097230000    -2.7910230000
   11      C       0.0000000000     0.0000000000     0.0000000000
   12      C       0.6615770000     0.5550870000     1.0994460000
   13      C       1.7217240000     1.4446300000     0.7767210000
   14      H       0.3790560000     0.3180320000     2.1360880000
   15      C       1.8907720000     1.5864490000    -0.6125460000
   16      S       0.7219350000     0.6057440000    -1.4868090000
   17      C       2.5550040000     2.1438050000     1.8146090000
   18      H       2.2289460000     1.8702110000     2.8366760000
   19      H       2.4826050000     3.2479870000     1.7262390000
   20      H       3.6298300000     1.8807350000     1.7262280000
   21      H       2.6179270000     2.1965790000    -1.1615750000
   22      H       1.6458450000    -4.1702710000     1.1194110000
   23      H      -0.1220010000    -4.4816180000     1.1192770000
   24      H       1.3138090000    -1.2315060000     0.0001150000
 ----------------------------------------------------------------

   11   -1180.6685919870      6.18e-07  Convergence criterion met
 Total energy in the final basis set =    -1180.6685919870
        RIMP2         total energy =     -1182.6988063059 a.u.

                    Orbital Energies (a.u.)
 --------------------------------------------------------------

 Alpha MOs
 -- Occupied --
-91.9752 -91.9399 -11.2819 -11.2639 -11.2584 -11.2569 -11.2537 -11.2489
-11.2392 -11.2300 -11.2257 -11.2162  -8.9776  -8.9447  -6.6581  -6.6574
 -6.6570  -6.6261  -6.6251  -6.6239  -1.2134  -1.1531  -1.0624  -1.0296
 -1.0070  -0.9546  -0.9132  -0.9064  -0.8057  -0.7765  -0.7237  -0.7027
 -0.6625  -0.6456  -0.6141  -0.5893  -0.5868  -0.5738  -0.5708  -0.5525
 -0.5407  -0.5365  -0.5194  -0.5157  -0.4893  -0.4588  -0.4481  -0.4334
 -0.3568  -0.3367  -0.3286  -0.2599

          Ground-State Mulliken Net Atomic Charges

     Atom                 Charge (a.u.)
  ----------------------------------------
      1 C                    -0.078413
      2 C                    -0.325948
      3 C                    -0.053744
      4 H                     0.175525
      5 C                     0.103960
      6 S                    -0.209682
      7 C                    -0.287450
      8 H                     0.109341
      9 H                     0.112959
     10 H                     0.114492
     11 C                    -0.107289
     12 C                    -0.172174
     13 C                    -0.004927
     14 H                     0.185162
     15 C                    -0.211288
     16 S                     0.027176
     17 C                    -0.266618
     18 H                     0.104406
     19 H                     0.108238
     20 H                     0.105693
     21 H                     0.200523
     22 H                     0.109285
     23 H                     0.112806
     24 H                     0.147968
  ----------------------------------------
  Sum of atomic charges =     0.000000

                    Cartesian Multipole Moments
 -----------------------------------------------------------------
    Charge (ESU x 10^10)
                -0.0000
    Dipole Moment (Debye)
         X       3.0662      Y       0.6655      Z      -1.0334
       Tot       3.3034
    Quadrupole Moments (Debye-Ang)
        XX     -84.1794     XY       3.7881     YY     -81.3320
        XZ       0.0258     YZ       3.8789     ZZ     -84.9740

 Total job time:  772.66s(wall), 768.17s(cpu)
        *  Thank you very much for using Q-Chem.  Have a nice day.  *
