 Q-Chem 5.4, Q-Chem, Inc., Pleasanton, CA (2021)
 Q-Chem 5.4.0 for Intel X86 EM64T Linux

User input:
--------------------------------------------------------------
$molecule
0 1
C	-0.775127	-3.866725	-0.000713
C	0.612565	-3.703963	-0.000302
C	1.066639	-2.357056	0.000067
H	1.302900	-4.561092	-0.000470
C	-0.000000	-1.440664	-0.000000
S	-1.544483	-2.286957	0.000009
C	2.521872	-1.978743	0.000295
H	3.166949	-2.878678	0.000221
H	2.790821	-1.376015	0.892850
H	2.791023	-1.375728	-0.892005
C	0.000000	0.000000	0.000000
C	0.149995	0.850475	1.099446
C	0.390327	2.213354	0.776721
H	0.085947	0.487279	2.136088
C	0.428665	2.430655	-0.612546
S	0.163670	0.928078	-1.486809
C	0.579235	3.284574	1.814609
H	0.505323	2.865404	2.836676
H	-0.185980	4.083890	1.726239
H	1.571698	3.773937	1.726228
H	0.593515	3.365448	-1.161575
H	-1.119411	-4.392713	0.896681
H	-1.119277	-4.392347	-0.898372
H	-0.000115	-1.440937	1.080000
$end

$rem
JOBTYPE		SP
EXCHANGE	HF
CORRELATION	pRIMP2
BASIS		cc-pvtz
METHOD		rimp2
AUX_BASIS	rimp2-cc-pvtz
SOLVENT_METHOD	PCM
PURECART	11111
SYMMETRY	false
MEM_TOTAL	110000
SCF_CONVERGENCE = 6
THRESH=10
$end

$solvent
dielectric 4.90
$end
--------------------------------------------------------------

             Standard Nuclear Orientation (Angstroms)
    I     Atom           X                Y                Z
 ----------------------------------------------------------------
    1      C      -0.7751270000    -3.8667250000    -0.0007130000
    2      C       0.6125650000    -3.7039630000    -0.0003020000
    3      C       1.0666390000    -2.3570560000     0.0000670000
    4      H       1.3029000000    -4.5610920000    -0.0004700000
    5      C       0.0000000000    -1.4406640000     0.0000000000
    6      S      -1.5444830000    -2.2869570000     0.0000090000
    7      C       2.5218720000    -1.9787430000     0.0002950000
    8      H       3.1669490000    -2.8786780000     0.0002210000
    9      H       2.7908210000    -1.3760150000     0.8928500000
   10      H       2.7910230000    -1.3757280000    -0.8920050000
   11      C       0.0000000000     0.0000000000     0.0000000000
   12      C       0.1499950000     0.8504750000     1.0994460000
   13      C       0.3903270000     2.2133540000     0.7767210000
   14      H       0.0859470000     0.4872790000     2.1360880000
   15      C       0.4286650000     2.4306550000    -0.6125460000
   16      S       0.1636700000     0.9280780000    -1.4868090000
   17      C       0.5792350000     3.2845740000     1.8146090000
   18      H       0.5053230000     2.8654040000     2.8366760000
   19      H      -0.1859800000     4.0838900000     1.7262390000
   20      H       1.5716980000     3.7739370000     1.7262280000
   21      H       0.5935150000     3.3654480000    -1.1615750000
   22      H      -1.1194110000    -4.3927130000     0.8966810000
   23      H      -1.1192770000    -4.3923470000    -0.8983720000
   24      H      -0.0001150000    -1.4409370000     1.0800000000
 ----------------------------------------------------------------

   10   -1180.7625941646      5.06e-07  Convergence criterion met
 Total energy in the final basis set =    -1180.7625941646
        RIMP2         total energy =     -1182.7675929567 a.u.

                    Orbital Energies (a.u.)
 --------------------------------------------------------------

 Alpha MOs
 -- Occupied --
-91.9804 -91.9402 -11.2807 -11.2658 -11.2629 -11.2552 -11.2510 -11.2448
-11.2404 -11.2313 -11.2296 -11.2195  -8.9804  -8.9450  -6.6613  -6.6608
 -6.6602  -6.6263  -6.6253  -6.6240  -1.1980  -1.1539  -1.0581  -1.0255
 -1.0062  -0.9602  -0.9118  -0.9013  -0.8147  -0.7616  -0.7361  -0.7025
 -0.6608  -0.6408  -0.6105  -0.5893  -0.5799  -0.5719  -0.5660  -0.5508
 -0.5417  -0.5295  -0.5152  -0.5055  -0.4924  -0.4797  -0.4599  -0.4479
 -0.3554  -0.3418  -0.3122  -0.2821

          Ground-State Mulliken Net Atomic Charges

     Atom                 Charge (a.u.)
  ----------------------------------------
      1 C                    -0.079177
      2 C                    -0.328526
      3 C                    -0.012644
      4 H                     0.176356
      5 C                     0.077402
      6 S                    -0.177826
      7 C                    -0.266146
      8 H                     0.113707
      9 H                     0.101520
     10 H                     0.107493
     11 C                    -0.077508
     12 C                    -0.245988
     13 C                     0.023344
     14 H                     0.182378
     15 C                    -0.236071
     16 S                     0.005723
     17 C                    -0.271800
     18 H                     0.102052
     19 H                     0.108760
     20 H                     0.108030
     21 H                     0.197060
     22 H                     0.111119
     23 H                     0.112266
     24 H                     0.168474
  ----------------------------------------
  Sum of atomic charges =     0.000000

                    Cartesian Multipole Moments
 -----------------------------------------------------------------
    Charge (ESU x 10^10)
                -0.0000
    Dipole Moment (Debye)
         X       2.7789      Y       0.6311      Z       2.3076
       Tot       3.6668
    Quadrupole Moments (Debye-Ang)
        XX     -91.4810     XY      -1.8362     YY     -73.9671
        XZ      -0.1317     YZ      -0.2688     ZZ     -86.0532

 Total job time:  656.75s(wall), 651.93s(cpu)
        *  Thank you very much for using Q-Chem.  Have a nice day.  *
