 Q-Chem 5.4, Q-Chem, Inc., Pleasanton, CA (2021)
 Q-Chem 5.4.0 for Intel X86 EM64T Linux

User input:
--------------------------------------------------------------
$molecule
0 1
C	0.133897	-3.866725	0.763475
C	-0.106669	-3.703963	-0.603206
C	-0.185154	-2.357056	-1.050446
H	-0.226709	-4.561092	-1.283024
C	0.000000	-1.440664	0.000000
S	0.268206	-2.286957	1.521018
C	-0.437628	-1.978743	-2.483610
H	-0.549717	-2.878678	-3.118875
H	0.394664	-1.376015	-2.903464
H	-1.363110	-1.375728	-2.593726
C	0.000000	0.000000	0.000000
C	0.223548	0.834165	1.099446
C	0.581748	2.170912	0.776721
H	0.128089	0.477934	2.136088
C	0.638880	2.384045	-0.612546
S	0.243934	0.910282	-1.486809
C	0.863301	3.221592	1.814609
H	0.753137	2.810458	2.836676
H	0.170663	4.084559	1.726239
H	1.894637	3.622593	1.726228
H	0.884575	3.300913	-1.161575
H	1.077442	-4.392713	0.946698
H	-0.690363	-4.392347	1.258274
H	-1.063612	-1.440391	0.187427
$end

$rem
JOBTYPE		SP
EXCHANGE	HF
CORRELATION	pRIMP2
BASIS		cc-pvtz
METHOD		rimp2
AUX_BASIS	rimp2-cc-pvtz
SOLVENT_METHOD	PCM
PURECART	11111
SYMMETRY	false
MEM_TOTAL	110000
SCF_CONVERGENCE = 6
THRESH=10
$end

$solvent
dielectric 4.90
$end
--------------------------------------------------------------

             Standard Nuclear Orientation (Angstroms)
    I     Atom           X                Y                Z
 ----------------------------------------------------------------
    1      C       0.1338970000    -3.8667250000     0.7634750000
    2      C      -0.1066690000    -3.7039630000    -0.6032060000
    3      C      -0.1851540000    -2.3570560000    -1.0504460000
    4      H      -0.2267090000    -4.5610920000    -1.2830240000
    5      C       0.0000000000    -1.4406640000     0.0000000000
    6      S       0.2682060000    -2.2869570000     1.5210180000
    7      C      -0.4376280000    -1.9787430000    -2.4836100000
    8      H      -0.5497170000    -2.8786780000    -3.1188750000
    9      H       0.3946640000    -1.3760150000    -2.9034640000
   10      H      -1.3631100000    -1.3757280000    -2.5937260000
   11      C       0.0000000000     0.0000000000     0.0000000000
   12      C       0.2235480000     0.8341650000     1.0994460000
   13      C       0.5817480000     2.1709120000     0.7767210000
   14      H       0.1280890000     0.4779340000     2.1360880000
   15      C       0.6388800000     2.3840450000    -0.6125460000
   16      S       0.2439340000     0.9102820000    -1.4868090000
   17      C       0.8633010000     3.2215920000     1.8146090000
   18      H       0.7531370000     2.8104580000     2.8366760000
   19      H       0.1706630000     4.0845590000     1.7262390000
   20      H       1.8946370000     3.6225930000     1.7262280000
   21      H       0.8845750000     3.3009130000    -1.1615750000
   22      H       1.0774420000    -4.3927130000     0.9466980000
   23      H      -0.6903630000    -4.3923470000     1.2582740000
   24      H      -1.0636120000    -1.4403910000     0.1874270000
 ----------------------------------------------------------------

   10   -1180.7520738171      5.11e-07  Convergence criterion met
 Total energy in the final basis set =    -1180.7520738171
        RIMP2         total energy =     -1182.7597385308 a.u.

                    Orbital Energies (a.u.)
 --------------------------------------------------------------

 Alpha MOs
 -- Occupied --
-91.9810 -91.9464 -11.2886 -11.2662 -11.2604 -11.2544 -11.2502 -11.2439
-11.2329 -11.2324 -11.2275 -11.2224  -8.9811  -8.9510  -6.6620  -6.6614
 -6.6607  -6.6323  -6.6313  -6.6300  -1.2023  -1.1524  -1.0607  -1.0286
 -1.0070  -0.9564  -0.9164  -0.9016  -0.8152  -0.7721  -0.7179  -0.7040
 -0.6602  -0.6478  -0.6108  -0.5912  -0.5828  -0.5729  -0.5678  -0.5541
 -0.5418  -0.5345  -0.5160  -0.5105  -0.4874  -0.4829  -0.4578  -0.4457
 -0.3589  -0.3416  -0.3263  -0.2637

          Ground-State Mulliken Net Atomic Charges

     Atom                 Charge (a.u.)
  ----------------------------------------
      1 C                    -0.073855
      2 C                    -0.322305
      3 C                    -0.046143
      4 H                     0.179127
      5 C                     0.142349
      6 S                    -0.184111
      7 C                    -0.309959
      8 H                     0.121976
      9 H                     0.113111
     10 H                     0.114423
     11 C                    -0.022728
     12 C                    -0.331717
     13 C                     0.058154
     14 H                     0.177638
     15 C                    -0.280422
     16 S                     0.012104
     17 C                    -0.271561
     18 H                     0.102663
     19 H                     0.108090
     20 H                     0.108882
     21 H                     0.195190
     22 H                     0.113399
     23 H                     0.111386
     24 H                     0.184307
  ----------------------------------------
  Sum of atomic charges =     0.000000

                    Cartesian Multipole Moments
 -----------------------------------------------------------------
    Charge (ESU x 10^10)
                -0.0000
    Dipole Moment (Debye)
         X      -0.9410      Y      -0.3993      Z      -0.8495
       Tot       1.3291
    Quadrupole Moments (Debye-Ang)
        XX     -91.2181     XY       4.5373     YY     -73.8341
        XZ       0.1207     YZ       4.3777     ZZ     -85.4181

 Total job time:  662.94s(wall), 654.93s(cpu)
        *  Thank you very much for using Q-Chem.  Have a nice day.  *
