 Q-Chem 5.4, Q-Chem, Inc., Pleasanton, CA (2021)
 Q-Chem 5.4.0 for Intel X86 EM64T Linux

User input:
--------------------------------------------------------------
$molecule
0 1
C	-0.763475	-3.866725	0.133897
C	0.603206	-3.703963	-0.106669
C	1.050446	-2.357056	-0.185154
H	1.283024	-4.561092	-0.226709
C	-0.000000	-1.440664	-0.000000
S	-1.521018	-2.286957	0.268206
C	2.483610	-1.978743	-0.437628
H	3.118875	-2.878678	-0.549717
H	2.903464	-1.376015	0.394664
H	2.593726	-1.375728	-1.363110
C	0.000000	0.000000	0.000000
C	0.149995	0.850475	1.099446
C	0.390327	2.213354	0.776721
H	0.085947	0.487279	2.136088
C	0.428665	2.430655	-0.612546
S	0.163670	0.928078	-1.486809
C	0.579235	3.284574	1.814609
H	0.505323	2.865404	2.836676
H	-0.185980	4.083890	1.726239
H	1.571698	3.773937	1.726228
H	0.593515	3.365448	-1.161575
H	-0.946698	-4.392713	1.077442
H	-1.258274	-4.392347	-0.690363
H	0.187427	-1.440937	1.063612
$end

$rem
JOBTYPE		SP
EXCHANGE	HF
CORRELATION	pRIMP2
BASIS		cc-pvtz
METHOD		rimp2
AUX_BASIS	rimp2-cc-pvtz
SOLVENT_METHOD	PCM
PURECART	11111
SYMMETRY	false
MEM_TOTAL	110000
SCF_CONVERGENCE = 6
THRESH=10
$end

$solvent
dielectric 4.90
$end
--------------------------------------------------------------

             Standard Nuclear Orientation (Angstroms)
    I     Atom           X                Y                Z
 ----------------------------------------------------------------
    1      C      -0.7634750000    -3.8667250000     0.1338970000
    2      C       0.6032060000    -3.7039630000    -0.1066690000
    3      C       1.0504460000    -2.3570560000    -0.1851540000
    4      H       1.2830240000    -4.5610920000    -0.2267090000
    5      C       0.0000000000    -1.4406640000     0.0000000000
    6      S      -1.5210180000    -2.2869570000     0.2682060000
    7      C       2.4836100000    -1.9787430000    -0.4376280000
    8      H       3.1188750000    -2.8786780000    -0.5497170000
    9      H       2.9034640000    -1.3760150000     0.3946640000
   10      H       2.5937260000    -1.3757280000    -1.3631100000
   11      C       0.0000000000     0.0000000000     0.0000000000
   12      C       0.1499950000     0.8504750000     1.0994460000
   13      C       0.3903270000     2.2133540000     0.7767210000
   14      H       0.0859470000     0.4872790000     2.1360880000
   15      C       0.4286650000     2.4306550000    -0.6125460000
   16      S       0.1636700000     0.9280780000    -1.4868090000
   17      C       0.5792350000     3.2845740000     1.8146090000
   18      H       0.5053230000     2.8654040000     2.8366760000
   19      H      -0.1859800000     4.0838900000     1.7262390000
   20      H       1.5716980000     3.7739370000     1.7262280000
   21      H       0.5935150000     3.3654480000    -1.1615750000
   22      H      -0.9466980000    -4.3927130000     1.0774420000
   23      H      -1.2582740000    -4.3923470000    -0.6903630000
   24      H       0.1874270000    -1.4409370000     1.0636120000
 ----------------------------------------------------------------

   10   -1180.7618753302      5.05e-07  Convergence criterion met
 Total energy in the final basis set =    -1180.7618753302
        RIMP2         total energy =     -1182.7670330452 a.u.

                    Orbital Energies (a.u.)
 --------------------------------------------------------------

 Alpha MOs
 -- Occupied --
-91.9808 -91.9402 -11.2811 -11.2652 -11.2631 -11.2552 -11.2510 -11.2441
-11.2405 -11.2312 -11.2295 -11.2196  -8.9807  -8.9450  -6.6617  -6.6611
 -6.6606  -6.6264  -6.6253  -6.6241  -1.1982  -1.1538  -1.0582  -1.0252
 -1.0067  -0.9597  -0.9120  -0.9013  -0.8144  -0.7628  -0.7353  -0.7017
 -0.6611  -0.6409  -0.6105  -0.5887  -0.5796  -0.5722  -0.5666  -0.5507
 -0.5417  -0.5299  -0.5151  -0.5053  -0.4930  -0.4797  -0.4596  -0.4481
 -0.3553  -0.3423  -0.3130  -0.2804

          Ground-State Mulliken Net Atomic Charges

     Atom                 Charge (a.u.)
  ----------------------------------------
      1 C                    -0.078992
      2 C                    -0.327798
      3 C                    -0.013494
      4 H                     0.176556
      5 C                     0.077724
      6 S                    -0.178685
      7 C                    -0.266345
      8 H                     0.113502
      9 H                     0.102706
     10 H                     0.106829
     11 C                    -0.077018
     12 C                    -0.246767
     13 C                     0.024598
     14 H                     0.182363
     15 C                    -0.237864
     16 S                     0.006883
     17 C                    -0.271787
     18 H                     0.102155
     19 H                     0.108746
     20 H                     0.107974
     21 H                     0.196797
     22 H                     0.110940
     23 H                     0.112431
     24 H                     0.168547
  ----------------------------------------
  Sum of atomic charges =     0.000000

                    Cartesian Multipole Moments
 -----------------------------------------------------------------
    Charge (ESU x 10^10)
                -0.0000
    Dipole Moment (Debye)
         X       2.8761      Y       0.5959      Z       1.8606
       Tot       3.4769
    Quadrupole Moments (Debye-Ang)
        XX     -91.5920     XY      -2.0650     YY     -74.0326
        XZ      -0.1238     YZ       0.4109     ZZ     -85.9160

 Total job time:  655.99s(wall), 652.01s(cpu)
        *  Thank you very much for using Q-Chem.  Have a nice day.  *
