 Q-Chem 5.4, Q-Chem, Inc., Pleasanton, CA (2021)
 Q-Chem 5.4.0 for Intel X86 EM64T Linux

User input:
--------------------------------------------------------------
$molecule
0 1
C	0.135301	-3.866725	-0.763228
C	-0.106073	-3.703963	0.603311
C	-0.185286	-2.357056	1.050423
H	-0.225783	-4.561092	1.283188
C	-0.000000	-1.440664	-0.000000
S	0.268187	-2.286957	-1.521021
C	-0.438209	-1.978743	2.483507
H	-0.550153	-2.878678	3.118798
H	-1.363906	-1.376015	2.593381
H	0.393798	-1.375728	2.903516
C	0.000000	0.000000	0.000000
C	0.555137	0.661535	1.099446
C	1.444710	1.721658	0.776721
H	0.318072	0.379023	2.136088
C	1.586563	1.890676	-0.612546
S	0.605781	0.721904	-1.486809
C	2.143920	2.554907	1.814609
H	1.870325	2.228851	2.836676
H	1.880882	3.629742	1.726239
H	3.248098	2.482476	1.726228
H	2.196723	2.617806	-1.161575
H	-0.688674	-4.392713	-1.258111
H	1.079084	-4.392347	-0.946272
H	-1.063572	-1.440937	-0.187654
$end

$rem
JOBTYPE		SP
EXCHANGE	HF
CORRELATION	pRIMP2
BASIS		cc-pvtz
METHOD		rimp2
AUX_BASIS	rimp2-cc-pvtz
SOLVENT_METHOD	PCM
PURECART	11111
SYMMETRY	false
MEM_TOTAL	110000
SCF_CONVERGENCE = 6
THRESH=10
$end

$solvent
dielectric 4.90
$end
--------------------------------------------------------------

             Standard Nuclear Orientation (Angstroms)
    I     Atom           X                Y                Z
 ----------------------------------------------------------------
    1      C       0.1353010000    -3.8667250000    -0.7632280000
    2      C      -0.1060730000    -3.7039630000     0.6033110000
    3      C      -0.1852860000    -2.3570560000     1.0504230000
    4      H      -0.2257830000    -4.5610920000     1.2831880000
    5      C       0.0000000000    -1.4406640000     0.0000000000
    6      S       0.2681870000    -2.2869570000    -1.5210210000
    7      C      -0.4382090000    -1.9787430000     2.4835070000
    8      H      -0.5501530000    -2.8786780000     3.1187980000
    9      H      -1.3639060000    -1.3760150000     2.5933810000
   10      H       0.3937980000    -1.3757280000     2.9035160000
   11      C       0.0000000000     0.0000000000     0.0000000000
   12      C       0.5551370000     0.6615350000     1.0994460000
   13      C       1.4447100000     1.7216580000     0.7767210000
   14      H       0.3180720000     0.3790230000     2.1360880000
   15      C       1.5865630000     1.8906760000    -0.6125460000
   16      S       0.6057810000     0.7219040000    -1.4868090000
   17      C       2.1439200000     2.5549070000     1.8146090000
   18      H       1.8703250000     2.2288510000     2.8366760000
   19      H       1.8808820000     3.6297420000     1.7262390000
   20      H       3.2480980000     2.4824760000     1.7262280000
   21      H       2.1967230000     2.6178060000    -1.1615750000
   22      H      -0.6886740000    -4.3927130000    -1.2581110000
   23      H       1.0790840000    -4.3923470000    -0.9462720000
   24      H      -1.0635720000    -1.4409370000    -0.1876540000
 ----------------------------------------------------------------

   10   -1180.7124859379      7.85e-07  Convergence criterion met
 Total energy in the final basis set =    -1180.7124859379
        RIMP2         total energy =     -1182.7302685586 a.u.

                    Orbital Energies (a.u.)
 --------------------------------------------------------------

 Alpha MOs
 -- Occupied --
-91.9814 -91.9429 -11.2738 -11.2657 -11.2636 -11.2528 -11.2503 -11.2403
-11.2389 -11.2332 -11.2287 -11.2178  -8.9816  -8.9475  -6.6625  -6.6618
 -6.6613  -6.6288  -6.6278  -6.6265  -1.2014  -1.1527  -1.0583  -1.0319
 -0.9986  -0.9640  -0.9140  -0.9000  -0.8156  -0.7601  -0.7324  -0.7075
 -0.6522  -0.6430  -0.6096  -0.5941  -0.5866  -0.5681  -0.5650  -0.5485
 -0.5456  -0.5347  -0.5216  -0.5044  -0.4822  -0.4756  -0.4628  -0.4380
 -0.3607  -0.3410  -0.3225  -0.2571

          Ground-State Mulliken Net Atomic Charges

     Atom                 Charge (a.u.)
  ----------------------------------------
      1 C                    -0.078713
      2 C                    -0.328102
      3 C                    -0.035451
      4 H                     0.176411
      5 C                     0.092547
      6 S                    -0.180757
      7 C                    -0.297973
      8 H                     0.120628
      9 H                     0.110310
     10 H                     0.102393
     11 C                    -0.075622
     12 C                    -0.244606
     13 C                     0.028866
     14 H                     0.193800
     15 C                    -0.242221
     16 S                     0.014054
     17 C                    -0.270064
     18 H                     0.100568
     19 H                     0.108428
     20 H                     0.106968
     21 H                     0.198685
     22 H                     0.109926
     23 H                     0.112210
     24 H                     0.177716
  ----------------------------------------
  Sum of atomic charges =     0.000000

                    Cartesian Multipole Moments
 -----------------------------------------------------------------
    Charge (ESU x 10^10)
                -0.0000
    Dipole Moment (Debye)
         X       0.0752      Y       0.1665      Z       3.6105
       Tot       3.6151
    Quadrupole Moments (Debye-Ang)
        XX     -87.3704     XY       7.2217     YY     -78.4768
        XZ       0.6715     YZ      -2.3601     ZZ     -85.3353

 Total job time:  678.54s(wall), 675.29s(cpu)
        *  Thank you very much for using Q-Chem.  Have a nice day.  *
