 Q-Chem 5.4, Q-Chem, Inc., Pleasanton, CA (2021)
 Q-Chem 5.4.0 for Intel X86 EM64T Linux

User input:
--------------------------------------------------------------
$molecule
0 1
C	0.763228	-3.866725	0.135301
C	-0.603311	-3.703963	-0.106073
C	-1.050423	-2.357056	-0.185286
H	-1.283188	-4.561092	-0.225783
C	-0.000000	-1.440664	-0.000000
S	1.521021	-2.286957	0.268187
C	-2.483507	-1.978743	-0.438209
H	-3.118798	-2.878678	-0.550153
H	-2.593381	-1.376015	-1.363906
H	-2.903516	-1.375728	0.393798
C	0.000000	0.000000	0.000000
C	0.365003	0.782674	1.099446
C	0.949885	2.036912	0.776721
H	0.209135	0.448431	2.136088
C	1.043159	2.236886	-0.612546
S	0.398297	0.854094	-1.486809
C	1.409609	3.022738	1.814609
H	1.229726	2.636980	2.836676
H	0.877346	3.992870	1.726239
H	2.494910	3.238558	1.726228
H	1.444334	3.097160	-1.161575
H	1.258111	-4.392713	-0.688674
H	0.946272	-4.392347	1.079084
H	-0.187654	-1.440391	1.063572
$end

$rem
JOBTYPE		SP
EXCHANGE	HF
CORRELATION	pRIMP2
BASIS		cc-pvtz
METHOD		rimp2
AUX_BASIS	rimp2-cc-pvtz
SOLVENT_METHOD	PCM
PURECART	11111
SYMMETRY	false
MEM_TOTAL	110000
SCF_CONVERGENCE = 6
THRESH=10
$end

$solvent
dielectric 4.90
$end
--------------------------------------------------------------

             Standard Nuclear Orientation (Angstroms)
    I     Atom           X                Y                Z
 ----------------------------------------------------------------
    1      C       0.7632280000    -3.8667250000     0.1353010000
    2      C      -0.6033110000    -3.7039630000    -0.1060730000
    3      C      -1.0504230000    -2.3570560000    -0.1852860000
    4      H      -1.2831880000    -4.5610920000    -0.2257830000
    5      C       0.0000000000    -1.4406640000     0.0000000000
    6      S       1.5210210000    -2.2869570000     0.2681870000
    7      C      -2.4835070000    -1.9787430000    -0.4382090000
    8      H      -3.1187980000    -2.8786780000    -0.5501530000
    9      H      -2.5933810000    -1.3760150000    -1.3639060000
   10      H      -2.9035160000    -1.3757280000     0.3937980000
   11      C       0.0000000000     0.0000000000     0.0000000000
   12      C       0.3650030000     0.7826740000     1.0994460000
   13      C       0.9498850000     2.0369120000     0.7767210000
   14      H       0.2091350000     0.4484310000     2.1360880000
   15      C       1.0431590000     2.2368860000    -0.6125460000
   16      S       0.3982970000     0.8540940000    -1.4868090000
   17      C       1.4096090000     3.0227380000     1.8146090000
   18      H       1.2297260000     2.6369800000     2.8366760000
   19      H       0.8773460000     3.9928700000     1.7262390000
   20      H       2.4949100000     3.2385580000     1.7262280000
   21      H       1.4443340000     3.0971600000    -1.1615750000
   22      H       1.2581110000    -4.3927130000    -0.6886740000
   23      H       0.9462720000    -4.3923470000     1.0790840000
   24      H      -0.1876540000    -1.4403910000     1.0635720000
 ----------------------------------------------------------------

   10   -1180.7541088806      5.38e-07  Convergence criterion met
 Total energy in the final basis set =    -1180.7541088806
        RIMP2         total energy =     -1182.7611651705 a.u.

                    Orbital Energies (a.u.)
 --------------------------------------------------------------

 Alpha MOs
 -- Occupied --
-91.9789 -91.9409 -11.2762 -11.2685 -11.2603 -11.2540 -11.2510 -11.2467
-11.2401 -11.2311 -11.2293 -11.2176  -8.9792  -8.9456  -6.6601  -6.6594
 -6.6589  -6.6269  -6.6259  -6.6246  -1.1982  -1.1537  -1.0576  -1.0257
 -1.0058  -0.9587  -0.9116  -0.9011  -0.8143  -0.7618  -0.7360  -0.6995
 -0.6600  -0.6401  -0.6106  -0.5886  -0.5806  -0.5718  -0.5658  -0.5500
 -0.5409  -0.5315  -0.5106  -0.5069  -0.4922  -0.4770  -0.4591  -0.4484
 -0.3568  -0.3393  -0.3123  -0.2809

          Ground-State Mulliken Net Atomic Charges

     Atom                 Charge (a.u.)
  ----------------------------------------
      1 C                    -0.075197
      2 C                    -0.324421
      3 C                    -0.036094
      4 H                     0.175214
      5 C                     0.072300
      6 S                    -0.170983
      7 C                    -0.270434
      8 H                     0.112333
      9 H                     0.105898
     10 H                     0.102195
     11 C                    -0.054275
     12 C                    -0.265380
     13 C                     0.040355
     14 H                     0.181536
     15 C                    -0.231737
     16 S                     0.004809
     17 C                    -0.269488
     18 H                     0.102195
     19 H                     0.107521
     20 H                     0.108677
     21 H                     0.197411
     22 H                     0.111609
     23 H                     0.108844
     24 H                     0.167109
  ----------------------------------------
  Sum of atomic charges =     0.000000

                    Cartesian Multipole Moments
 -----------------------------------------------------------------
    Charge (ESU x 10^10)
                -0.0000
    Dipole Moment (Debye)
         X      -1.6114      Y       0.6683      Z       1.9169
       Tot       2.5919
    Quadrupole Moments (Debye-Ang)
        XX     -89.8032     XY       7.9891     YY     -75.7410
        XZ       0.8048     YZ       0.2665     ZZ     -85.8775

 Total job time:  646.73s(wall), 642.34s(cpu)
        *  Thank you very much for using Q-Chem.  Have a nice day.  *
