 Q-Chem 5.4, Q-Chem, Inc., Pleasanton, CA (2021)
 Q-Chem 5.4.0 for Intel X86 EM64T Linux

User input:
--------------------------------------------------------------
$molecule
0 1
C	0.728625	-3.866725	-0.264439
C	-0.575519	-3.703963	0.209794
C	-1.002336	-2.357056	0.364749
H	-1.224165	-4.561092	0.446060
C	-0.000000	-1.440664	-0.000000
S	1.451336	-2.286957	-0.528253
C	-2.369885	-1.978743	0.862253
H	-2.976034	-2.878678	1.082953
H	-2.927887	-1.376015	0.115513
H	-2.317620	-1.375728	1.792797
C	0.000000	0.000000	0.000000
C	0.365003	0.782674	1.099446
C	0.949885	2.036912	0.776721
H	0.209135	0.448431	2.136088
C	1.043159	2.236886	-0.612546
S	0.398297	0.854094	-1.486809
C	1.409609	3.022738	1.814609
H	1.229726	2.636980	2.836676
H	0.877346	3.992870	1.726239
H	2.494910	3.238558	1.726228
H	1.444334	3.097160	-1.161575
H	0.745219	-4.392713	-1.225465
H	1.359038	-4.392347	0.461378
H	-0.369273	-1.440937	-1.014907
$end

$rem
JOBTYPE		SP
EXCHANGE	HF
CORRELATION	pRIMP2
BASIS		cc-pvtz
METHOD		rimp2
AUX_BASIS	rimp2-cc-pvtz
SOLVENT_METHOD	PCM
PURECART	11111
SYMMETRY	false
MEM_TOTAL	110000
SCF_CONVERGENCE = 6
THRESH=10
$end

$solvent
dielectric 4.90
$end
--------------------------------------------------------------

             Standard Nuclear Orientation (Angstroms)
    I     Atom           X                Y                Z
 ----------------------------------------------------------------
    1      C       0.7286250000    -3.8667250000    -0.2644390000
    2      C      -0.5755190000    -3.7039630000     0.2097940000
    3      C      -1.0023360000    -2.3570560000     0.3647490000
    4      H      -1.2241650000    -4.5610920000     0.4460600000
    5      C       0.0000000000    -1.4406640000     0.0000000000
    6      S       1.4513360000    -2.2869570000    -0.5282530000
    7      C      -2.3698850000    -1.9787430000     0.8622530000
    8      H      -2.9760340000    -2.8786780000     1.0829530000
    9      H      -2.9278870000    -1.3760150000     0.1155130000
   10      H      -2.3176200000    -1.3757280000     1.7927970000
   11      C       0.0000000000     0.0000000000     0.0000000000
   12      C       0.3650030000     0.7826740000     1.0994460000
   13      C       0.9498850000     2.0369120000     0.7767210000
   14      H       0.2091350000     0.4484310000     2.1360880000
   15      C       1.0431590000     2.2368860000    -0.6125460000
   16      S       0.3982970000     0.8540940000    -1.4868090000
   17      C       1.4096090000     3.0227380000     1.8146090000
   18      H       1.2297260000     2.6369800000     2.8366760000
   19      H       0.8773460000     3.9928700000     1.7262390000
   20      H       2.4949100000     3.2385580000     1.7262280000
   21      H       1.4443340000     3.0971600000    -1.1615750000
   22      H       0.7452190000    -4.3927130000    -1.2254650000
   23      H       1.3590380000    -4.3923470000     0.4613780000
   24      H      -0.3692730000    -1.4409370000    -1.0149070000
 ----------------------------------------------------------------

   10   -1180.7479935693      5.34e-07  Convergence criterion met
 Total energy in the final basis set =    -1180.7479935693
        RIMP2         total energy =     -1182.7551842355 a.u.

                    Orbital Energies (a.u.)
 --------------------------------------------------------------

 Alpha MOs
 -- Occupied --
-91.9852 -91.9399 -11.2738 -11.2687 -11.2615 -11.2535 -11.2508 -11.2409
-11.2398 -11.2314 -11.2287 -11.2174  -8.9850  -8.9447  -6.6659  -6.6654
 -6.6648  -6.6260  -6.6250  -6.6237  -1.1981  -1.1536  -1.0579  -1.0270
 -1.0009  -0.9633  -0.9117  -0.9004  -0.8130  -0.7592  -0.7437  -0.7027
 -0.6528  -0.6330  -0.6109  -0.5874  -0.5792  -0.5714  -0.5669  -0.5535
 -0.5425  -0.5305  -0.5104  -0.5064  -0.4907  -0.4778  -0.4640  -0.4483
 -0.3570  -0.3384  -0.3143  -0.2778

          Ground-State Mulliken Net Atomic Charges

     Atom                 Charge (a.u.)
  ----------------------------------------
      1 C                    -0.074785
      2 C                    -0.326083
      3 C                    -0.035623
      4 H                     0.175180
      5 C                     0.078654
      6 S                    -0.171204
      7 C                    -0.269616
      8 H                     0.112817
      9 H                     0.103665
     10 H                     0.103445
     11 C                    -0.103620
     12 C                    -0.210499
     13 C                     0.019187
     14 H                     0.186104
     15 C                    -0.229971
     16 S                     0.012755
     17 C                    -0.271299
     18 H                     0.102503
     19 H                     0.107280
     20 H                     0.108040
     21 H                     0.198828
     22 H                     0.108609
     23 H                     0.112049
     24 H                     0.163586
  ----------------------------------------
  Sum of atomic charges =     0.000000

                    Cartesian Multipole Moments
 -----------------------------------------------------------------
    Charge (ESU x 10^10)
                -0.0000
    Dipole Moment (Debye)
         X      -1.6085      Y       0.7854      Z       1.5877
       Tot       2.3927
    Quadrupole Moments (Debye-Ang)
        XX     -89.9483     XY       8.1266     YY     -75.8130
        XZ       0.0889     YZ       0.8554     ZZ     -85.5904

 Total job time:  643.58s(wall), 640.19s(cpu)
        *  Thank you very much for using Q-Chem.  Have a nice day.  *
