 Q-Chem 5.4, Q-Chem, Inc., Pleasanton, CA (2021)
 Q-Chem 5.4.0 for Intel X86 EM64T Linux

User input:
--------------------------------------------------------------
$molecule
0 1
C	0.497696	-3.866725	0.594240
C	-0.393981	-3.703963	-0.469057
C	-0.685571	-2.357056	-0.817136
H	-0.837848	-4.561092	-0.997777
C	0.000000	-1.440664	0.000000
S	0.992782	-2.286957	1.183137
C	-1.620802	-1.978743	-1.932056
H	-2.035506	-2.878678	-2.426166
H	-1.109943	-1.376015	-2.711806
H	-2.477350	-1.375728	-1.564678
C	0.000000	0.000000	0.000000
C	0.223548	0.834165	1.099446
C	0.581748	2.170912	0.776721
H	0.128089	0.477934	2.136088
C	0.638880	2.384045	-0.612546
S	0.243934	0.910282	-1.486809
C	0.863301	3.221592	1.814609
H	0.753137	2.810458	2.836676
H	0.170663	4.084559	1.726239
H	1.894637	3.622593	1.726228
H	0.884575	3.300913	-1.161575
H	1.406441	-4.392713	0.281143
H	0.031265	-4.392347	1.434879
H	-0.827402	-1.440391	0.694122
$end

$rem
JOBTYPE		SP
EXCHANGE	HF
CORRELATION	pRIMP2
BASIS		cc-pvtz
METHOD		rimp2
AUX_BASIS	rimp2-cc-pvtz
SOLVENT_METHOD	PCM
PURECART	11111
SYMMETRY	false
MEM_TOTAL	110000
SCF_CONVERGENCE = 6
THRESH=10
$end

$solvent
dielectric 4.90
$end
--------------------------------------------------------------

             Standard Nuclear Orientation (Angstroms)
    I     Atom           X                Y                Z
 ----------------------------------------------------------------
    1      C       0.4976960000    -3.8667250000     0.5942400000
    2      C      -0.3939810000    -3.7039630000    -0.4690570000
    3      C      -0.6855710000    -2.3570560000    -0.8171360000
    4      H      -0.8378480000    -4.5610920000    -0.9977770000
    5      C       0.0000000000    -1.4406640000     0.0000000000
    6      S       0.9927820000    -2.2869570000     1.1831370000
    7      C      -1.6208020000    -1.9787430000    -1.9320560000
    8      H      -2.0355060000    -2.8786780000    -2.4261660000
    9      H      -1.1099430000    -1.3760150000    -2.7118060000
   10      H      -2.4773500000    -1.3757280000    -1.5646780000
   11      C       0.0000000000     0.0000000000     0.0000000000
   12      C       0.2235480000     0.8341650000     1.0994460000
   13      C       0.5817480000     2.1709120000     0.7767210000
   14      H       0.1280890000     0.4779340000     2.1360880000
   15      C       0.6388800000     2.3840450000    -0.6125460000
   16      S       0.2439340000     0.9102820000    -1.4868090000
   17      C       0.8633010000     3.2215920000     1.8146090000
   18      H       0.7531370000     2.8104580000     2.8366760000
   19      H       0.1706630000     4.0845590000     1.7262390000
   20      H       1.8946370000     3.6225930000     1.7262280000
   21      H       0.8845750000     3.3009130000    -1.1615750000
   22      H       1.4064410000    -4.3927130000     0.2811430000
   23      H       0.0312650000    -4.3923470000     1.4348790000
   24      H      -0.8274020000    -1.4403910000     0.6941220000
 ----------------------------------------------------------------

   10   -1180.7566625445      5.11e-07  Convergence criterion met
 Total energy in the final basis set =    -1180.7566625445
        RIMP2         total energy =     -1182.7633151134 a.u.

                    Orbital Energies (a.u.)
 --------------------------------------------------------------

 Alpha MOs
 -- Occupied --
-91.9812 -91.9440 -11.2851 -11.2641 -11.2592 -11.2575 -11.2510 -11.2421
-11.2374 -11.2328 -11.2284 -11.2212  -8.9811  -8.9486  -6.6621  -6.6615
 -6.6609  -6.6299  -6.6289  -6.6276  -1.2002  -1.1530  -1.0593  -1.0272
 -1.0072  -0.9571  -0.9146  -0.9012  -0.8153  -0.7689  -0.7251  -0.7005
 -0.6614  -0.6440  -0.6108  -0.5879  -0.5816  -0.5740  -0.5676  -0.5530
 -0.5417  -0.5339  -0.5145  -0.5079  -0.4888  -0.4817  -0.4586  -0.4488
 -0.3565  -0.3429  -0.3214  -0.2685

          Ground-State Mulliken Net Atomic Charges

     Atom                 Charge (a.u.)
  ----------------------------------------
      1 C                    -0.078496
      2 C                    -0.321637
      3 C                    -0.045616
      4 H                     0.177557
      5 C                     0.118473
      6 S                    -0.174961
      7 C                    -0.284239
      8 H                     0.116080
      9 H                     0.109545
     10 H                     0.108712
     11 C                    -0.035520
     12 C                    -0.313359
     13 C                     0.046290
     14 H                     0.184020
     15 C                    -0.259814
     16 S                     0.008678
     17 C                    -0.272965
     18 H                     0.102634
     19 H                     0.107790
     20 H                     0.109090
     21 H                     0.194911
     22 H                     0.113191
     23 H                     0.110393
     24 H                     0.179241
  ----------------------------------------
  Sum of atomic charges =     0.000000

                    Cartesian Multipole Moments
 -----------------------------------------------------------------
    Charge (ESU x 10^10)
                -0.0000
    Dipole Moment (Debye)
         X      -1.7986      Y       0.0317      Z       0.2006
       Tot       1.8101
    Quadrupole Moments (Debye-Ang)
        XX     -91.2298     XY       6.0389     YY     -74.0857
        XZ       0.4833     YZ       2.9631     ZZ     -85.5655

 Total job time:  650.94s(wall), 645.11s(cpu)
        *  Thank you very much for using Q-Chem.  Have a nice day.  *
