 Q-Chem 5.4, Q-Chem, Inc., Pleasanton, CA (2021)
 Q-Chem 5.4.0 for Intel X86 EM64T Linux

User input:
--------------------------------------------------------------
$molecule
0 1
C	0.498788	-3.866725	-0.593324
C	-0.393517	-3.703963	0.469446
C	-0.685674	-2.357056	0.817050
H	-0.837128	-4.561092	0.998381
C	-0.000000	-1.440664	-0.000000
S	0.992768	-2.286957	-1.183149
C	-1.621254	-1.978743	1.931676
H	-2.035845	-2.878678	2.425882
H	-2.477868	-1.376015	1.563980
H	-1.110719	-1.375728	2.711417
C	0.000000	0.000000	0.000000
C	0.365003	0.782674	1.099446
C	0.949885	2.036912	0.776721
H	0.209135	0.448431	2.136088
C	1.043159	2.236886	-0.612546
S	0.398297	0.854094	-1.486809
C	1.409609	3.022738	1.814609
H	1.229726	2.636980	2.836676
H	0.877346	3.992870	1.726239
H	2.494910	3.238558	1.726228
H	1.444334	3.097160	-1.161575
H	0.032646	-4.392713	-1.433894
H	1.407651	-4.392347	-0.279954
H	0.827254	-1.440391	0.694299
$end

$rem
JOBTYPE		SP
EXCHANGE	HF
CORRELATION	pRIMP2
BASIS		cc-pvtz
METHOD		rimp2
AUX_BASIS	rimp2-cc-pvtz
SOLVENT_METHOD	PCM
PURECART	11111
SYMMETRY	false
MEM_TOTAL	110000
SCF_CONVERGENCE = 6
THRESH=10
$end

$solvent
dielectric 4.90
$end
--------------------------------------------------------------

             Standard Nuclear Orientation (Angstroms)
    I     Atom           X                Y                Z
 ----------------------------------------------------------------
    1      C       0.4987880000    -3.8667250000    -0.5933240000
    2      C      -0.3935170000    -3.7039630000     0.4694460000
    3      C      -0.6856740000    -2.3570560000     0.8170500000
    4      H      -0.8371280000    -4.5610920000     0.9983810000
    5      C       0.0000000000    -1.4406640000     0.0000000000
    6      S       0.9927680000    -2.2869570000    -1.1831490000
    7      C      -1.6212540000    -1.9787430000     1.9316760000
    8      H      -2.0358450000    -2.8786780000     2.4258820000
    9      H      -2.4778680000    -1.3760150000     1.5639800000
   10      H      -1.1107190000    -1.3757280000     2.7114170000
   11      C       0.0000000000     0.0000000000     0.0000000000
   12      C       0.3650030000     0.7826740000     1.0994460000
   13      C       0.9498850000     2.0369120000     0.7767210000
   14      H       0.2091350000     0.4484310000     2.1360880000
   15      C       1.0431590000     2.2368860000    -0.6125460000
   16      S       0.3982970000     0.8540940000    -1.4868090000
   17      C       1.4096090000     3.0227380000     1.8146090000
   18      H       1.2297260000     2.6369800000     2.8366760000
   19      H       0.8773460000     3.9928700000     1.7262390000
   20      H       2.4949100000     3.2385580000     1.7262280000
   21      H       1.4443340000     3.0971600000    -1.1615750000
   22      H       0.0326460000    -4.3927130000    -1.4338940000
   23      H       1.4076510000    -4.3923470000    -0.2799540000
   24      H       0.8272540000    -1.4403910000     0.6942990000
 ----------------------------------------------------------------

   10   -1180.7456318108      5.25e-07  Convergence criterion met
 Total energy in the final basis set =    -1180.7456318108
        RIMP2         total energy =     -1182.7544266241 a.u.

                    Orbital Energies (a.u.)
 --------------------------------------------------------------

 Alpha MOs
 -- Occupied --
-91.9840 -91.9436 -11.2846 -11.2628 -11.2590 -11.2563 -11.2511 -11.2409
-11.2353 -11.2330 -11.2288 -11.2194  -8.9836  -8.9481  -6.6645  -6.6639
 -6.6634  -6.6295  -6.6284  -6.6272  -1.2013  -1.1527  -1.0590  -1.0297
 -1.0020  -0.9610  -0.9125  -0.9005  -0.8166  -0.7600  -0.7295  -0.7035
 -0.6620  -0.6448  -0.6101  -0.5896  -0.5848  -0.5700  -0.5610  -0.5539
 -0.5422  -0.5328  -0.5161  -0.5057  -0.4886  -0.4794  -0.4668  -0.4434
 -0.3561  -0.3439  -0.3216  -0.2653

          Ground-State Mulliken Net Atomic Charges

     Atom                 Charge (a.u.)
  ----------------------------------------
      1 C                    -0.077920
      2 C                    -0.321638
      3 C                    -0.050150
      4 H                     0.175531
      5 C                     0.075395
      6 S                    -0.174370
      7 C                    -0.279493
      8 H                     0.116234
      9 H                     0.111640
     10 H                     0.100101
     11 C                    -0.037966
     12 C                    -0.263567
     13 C                     0.028789
     14 H                     0.186169
     15 C                    -0.254814
     16 S                     0.010264
     17 C                    -0.271851
     18 H                     0.101084
     19 H                     0.108419
     20 H                     0.108046
     21 H                     0.196627
     22 H                     0.109657
     23 H                     0.111379
     24 H                     0.192433
  ----------------------------------------
  Sum of atomic charges =     0.000000

                    Cartesian Multipole Moments
 -----------------------------------------------------------------
    Charge (ESU x 10^10)
                -0.0000
    Dipole Moment (Debye)
         X      -0.1895      Y       0.0508      Z       3.7026
       Tot       3.7078
    Quadrupole Moments (Debye-Ang)
        XX     -89.4803     XY       4.9773     YY     -75.8956
        XZ       0.3325     YZ      -2.6300     ZZ     -86.0081

 Total job time:  648.58s(wall), 645.18s(cpu)
        *  Thank you very much for using Q-Chem.  Have a nice day.  *
