 Q-Chem 5.4, Q-Chem, Inc., Pleasanton, CA (2021)
 Q-Chem 5.4.0 for Intel X86 EM64T Linux

User input:
--------------------------------------------------------------
$molecule
0 1
C	0.265779	-3.866725	-0.728138
C	-0.209225	-3.703963	0.575726
C	-0.364875	-2.357056	1.002290
H	-0.445176	-4.561092	1.224486
C	0.000000	-1.440664	0.000000
S	0.528236	-2.286957	-1.451343
C	-0.862808	-1.978743	2.369683
H	-1.083368	-2.878678	2.975883
H	-1.793522	-1.376015	2.317142
H	-0.116375	-1.375728	2.927787
C	0.000000	0.000000	0.000000
C	0.661577	0.555087	1.099446
C	1.721724	1.444630	0.776721
H	0.379056	0.318032	2.136088
C	1.890772	1.586449	-0.612546
S	0.721935	0.605744	-1.486809
C	2.555004	2.143805	1.814609
H	2.228946	1.870211	2.836676
H	2.482605	3.247987	1.726239
H	3.629830	1.880735	1.726228
H	2.617927	2.196579	-1.161575
H	-0.459743	-4.392713	-1.358585
H	1.227009	-4.392347	-0.744515
H	-1.014829	-1.440937	-0.369490
$end

$rem
JOBTYPE		SP
EXCHANGE	HF
CORRELATION	pRIMP2
BASIS		cc-pvtz
METHOD		rimp2
AUX_BASIS	rimp2-cc-pvtz
SOLVENT_METHOD	PCM
PURECART	11111
SYMMETRY	false
MEM_TOTAL	110000
SCF_CONVERGENCE = 6
THRESH=10
$end

$solvent
dielectric 4.90
$end
--------------------------------------------------------------

             Standard Nuclear Orientation (Angstroms)
    I     Atom           X                Y                Z
 ----------------------------------------------------------------
    1      C       0.2657790000    -3.8667250000    -0.7281380000
    2      C      -0.2092250000    -3.7039630000     0.5757260000
    3      C      -0.3648750000    -2.3570560000     1.0022900000
    4      H      -0.4451760000    -4.5610920000     1.2244860000
    5      C       0.0000000000    -1.4406640000     0.0000000000
    6      S       0.5282360000    -2.2869570000    -1.4513430000
    7      C      -0.8628080000    -1.9787430000     2.3696830000
    8      H      -1.0833680000    -2.8786780000     2.9758830000
    9      H      -1.7935220000    -1.3760150000     2.3171420000
   10      H      -0.1163750000    -1.3757280000     2.9277870000
   11      C       0.0000000000     0.0000000000     0.0000000000
   12      C       0.6615770000     0.5550870000     1.0994460000
   13      C       1.7217240000     1.4446300000     0.7767210000
   14      H       0.3790560000     0.3180320000     2.1360880000
   15      C       1.8907720000     1.5864490000    -0.6125460000
   16      S       0.7219350000     0.6057440000    -1.4868090000
   17      C       2.5550040000     2.1438050000     1.8146090000
   18      H       2.2289460000     1.8702110000     2.8366760000
   19      H       2.4826050000     3.2479870000     1.7262390000
   20      H       3.6298300000     1.8807350000     1.7262280000
   21      H       2.6179270000     2.1965790000    -1.1615750000
   22      H      -0.4597430000    -4.3927130000    -1.3585850000
   23      H       1.2270090000    -4.3923470000    -0.7445150000
   24      H      -1.0148290000    -1.4409370000    -0.3694900000
 ----------------------------------------------------------------

   11   -1180.6906981464      4.93e-07  Convergence criterion met
 Total energy in the final basis set =    -1180.6906981464
        RIMP2         total energy =     -1182.7130210907 a.u.

                    Orbital Energies (a.u.)
 --------------------------------------------------------------

 Alpha MOs
 -- Occupied --
-91.9811 -91.9398 -11.2749 -11.2627 -11.2610 -11.2514 -11.2483 -11.2471
-11.2363 -11.2323 -11.2294 -11.2142  -8.9817  -8.9444  -6.6625  -6.6618
 -6.6614  -6.6257  -6.6246  -6.6233  -1.2017  -1.1530  -1.0574  -1.0312
 -0.9976  -0.9656  -0.9115  -0.9006  -0.8143  -0.7582  -0.7366  -0.7070
 -0.6505  -0.6382  -0.6108  -0.5937  -0.5855  -0.5678  -0.5667  -0.5498
 -0.5440  -0.5344  -0.5185  -0.5058  -0.4820  -0.4780  -0.4551  -0.4352
 -0.3580  -0.3394  -0.3228  -0.2544

          Ground-State Mulliken Net Atomic Charges

     Atom                 Charge (a.u.)
  ----------------------------------------
      1 C                    -0.081888
      2 C                    -0.334836
      3 C                    -0.040639
      4 H                     0.173944
      5 C                     0.081432
      6 S                    -0.180526
      7 C                    -0.293148
      8 H                     0.118563
      9 H                     0.111099
     10 H                     0.099070
     11 C                    -0.117963
     12 C                    -0.184129
     13 C                     0.001800
     14 H                     0.198145
     15 C                    -0.208324
     16 S                     0.016520
     17 C                    -0.269736
     18 H                     0.100838
     19 H                     0.108067
     20 H                     0.106466
     21 H                     0.200417
     22 H                     0.106997
     23 H                     0.109577
     24 H                     0.178254
  ----------------------------------------
  Sum of atomic charges =     0.000000

                    Cartesian Multipole Moments
 -----------------------------------------------------------------
    Charge (ESU x 10^10)
                -0.0000
    Dipole Moment (Debye)
         X       0.4120      Y       0.6271      Z       3.3665
       Tot       3.4491
    Quadrupole Moments (Debye-Ang)
        XX     -85.0641     XY       8.1334     YY     -81.5794
        XZ       0.5028     YZ      -2.1733     ZZ     -85.0579

 Total job time:  732.12s(wall), 728.46s(cpu)
        *  Thank you very much for using Q-Chem.  Have a nice day.  *
