 Q-Chem 5.4, Q-Chem, Inc., Pleasanton, CA (2021)
 Q-Chem 5.4.0 for Intel X86 EM64T Linux

User input:
--------------------------------------------------------------
$molecule
0 1
C	0.728138	-3.866725	0.265779
C	-0.575726	-3.703963	-0.209225
C	-1.002290	-2.357056	-0.364875
H	-1.224486	-4.561092	-0.445176
C	-0.000000	-1.440664	-0.000000
S	1.451343	-2.286957	0.528236
C	-2.369683	-1.978743	-0.862808
H	-2.975883	-2.878678	-1.083368
H	-2.317142	-1.376015	-1.793522
H	-2.927787	-1.375728	-0.116375
C	0.000000	0.000000	0.000000
C	0.075300	0.860311	1.099446
C	0.195935	2.238951	0.776721
H	0.043151	0.492916	2.136088
C	0.215188	2.458766	-0.612546
S	0.082160	0.938811	-1.486809
C	0.290762	3.322559	1.814609
H	0.253664	2.898542	2.836676
H	-0.541206	4.052140	1.726239
H	1.236797	3.896558	1.726228
H	0.297938	3.404370	-1.161575
H	1.358585	-4.392713	-0.459743
H	0.744515	-4.392347	1.227009
H	0.369490	-1.440937	-1.014829
$end

$rem
JOBTYPE		SP
EXCHANGE	HF
CORRELATION	pRIMP2
BASIS		cc-pvtz
METHOD		rimp2
AUX_BASIS	rimp2-cc-pvtz
SOLVENT_METHOD	PCM
PURECART	11111
SYMMETRY	false
MEM_TOTAL	110000
SCF_CONVERGENCE = 6
THRESH=10
$end

$solvent
dielectric 4.90
$end
--------------------------------------------------------------

             Standard Nuclear Orientation (Angstroms)
    I     Atom           X                Y                Z
 ----------------------------------------------------------------
    1      C       0.7281380000    -3.8667250000     0.2657790000
    2      C      -0.5757260000    -3.7039630000    -0.2092250000
    3      C      -1.0022900000    -2.3570560000    -0.3648750000
    4      H      -1.2244860000    -4.5610920000    -0.4451760000
    5      C       0.0000000000    -1.4406640000     0.0000000000
    6      S       1.4513430000    -2.2869570000     0.5282360000
    7      C      -2.3696830000    -1.9787430000    -0.8628080000
    8      H      -2.9758830000    -2.8786780000    -1.0833680000
    9      H      -2.3171420000    -1.3760150000    -1.7935220000
   10      H      -2.9277870000    -1.3757280000    -0.1163750000
   11      C       0.0000000000     0.0000000000     0.0000000000
   12      C       0.0753000000     0.8603110000     1.0994460000
   13      C       0.1959350000     2.2389510000     0.7767210000
   14      H       0.0431510000     0.4929160000     2.1360880000
   15      C       0.2151880000     2.4587660000    -0.6125460000
   16      S       0.0821600000     0.9388110000    -1.4868090000
   17      C       0.2907620000     3.3225590000     1.8146090000
   18      H       0.2536640000     2.8985420000     2.8366760000
   19      H      -0.5412060000     4.0521400000     1.7262390000
   20      H       1.2367970000     3.8965580000     1.7262280000
   21      H       0.2979380000     3.4043700000    -1.1615750000
   22      H       1.3585850000    -4.3927130000    -0.4597430000
   23      H       0.7445150000    -4.3923470000     1.2270090000
   24      H       0.3694900000    -1.4409370000    -1.0148290000
 ----------------------------------------------------------------

   10   -1180.7599841811      4.98e-07  Convergence criterion met
 Total energy in the final basis set =    -1180.7599841811
        RIMP2         total energy =     -1182.7641283762 a.u.

                    Orbital Energies (a.u.)
 --------------------------------------------------------------

 Alpha MOs
 -- Occupied --
-91.9861 -91.9423 -11.2803 -11.2642 -11.2626 -11.2557 -11.2509 -11.2408
-11.2379 -11.2315 -11.2285 -11.2190  -8.9858  -8.9468  -6.6667  -6.6662
 -6.6655  -6.6282  -6.6272  -6.6259  -1.1985  -1.1535  -1.0590  -1.0259
 -1.0039  -0.9616  -0.9137  -0.9003  -0.8129  -0.7660  -0.7360  -0.7038
 -0.6543  -0.6353  -0.6108  -0.5889  -0.5764  -0.5736  -0.5691  -0.5536
 -0.5424  -0.5308  -0.5130  -0.5056  -0.4897  -0.4834  -0.4634  -0.4478
 -0.3559  -0.3420  -0.3149  -0.2793

          Ground-State Mulliken Net Atomic Charges

     Atom                 Charge (a.u.)
  ----------------------------------------
      1 C                    -0.077020
      2 C                    -0.327368
      3 C                    -0.041947
      4 H                     0.176343
      5 C                     0.123595
      6 S                    -0.175032
      7 C                    -0.266190
      8 H                     0.113010
      9 H                     0.100138
     10 H                     0.108033
     11 C                    -0.113552
     12 C                    -0.232059
     13 C                     0.024124
     14 H                     0.186290
     15 C                    -0.245898
     16 S                     0.014233
     17 C                    -0.272398
     18 H                     0.103037
     19 H                     0.107758
     20 H                     0.108347
     21 H                     0.198358
     22 H                     0.111129
     23 H                     0.111793
     24 H                     0.165274
  ----------------------------------------
  Sum of atomic charges =     0.000000

                    Cartesian Multipole Moments
 -----------------------------------------------------------------
    Charge (ESU x 10^10)
                -0.0000
    Dipole Moment (Debye)
         X      -1.8463      Y       0.6185      Z      -0.0593
       Tot       1.9480
    Quadrupole Moments (Debye-Ang)
        XX     -91.4296     XY       3.7866     YY     -73.6791
        XZ      -0.0678     YZ       3.5168     ZZ     -86.0959

 Total job time:  648.29s(wall), 644.53s(cpu)
        *  Thank you very much for using Q-Chem.  Have a nice day.  *
