 Q-Chem 5.4, Q-Chem, Inc., Pleasanton, CA (2021)
 Q-Chem 5.4.0 for Intel X86 EM64T Linux

User input:
--------------------------------------------------------------
$molecule
0 1
C	-0.265779	-3.866725	0.728138
C	0.209225	-3.703963	-0.575726
C	0.364875	-2.357056	-1.002290
H	0.445176	-4.561092	-1.224486
C	0.000000	-1.440664	0.000000
S	-0.528236	-2.286957	1.451343
C	0.862808	-1.978743	-2.369683
H	1.083368	-2.878678	-2.975883
H	1.793522	-1.376015	-2.317142
H	0.116375	-1.375728	-2.927787
C	0.000000	0.000000	0.000000
C	0.661577	0.555087	1.099446
C	1.721724	1.444630	0.776721
H	0.379056	0.318032	2.136088
C	1.890772	1.586449	-0.612546
S	0.721935	0.605744	-1.486809
C	2.555004	2.143805	1.814609
H	2.228946	1.870211	2.836676
H	2.482605	3.247987	1.726239
H	3.629830	1.880735	1.726228
H	2.617927	2.196579	-1.161575
H	0.459743	-4.392713	1.358585
H	-1.227009	-4.392347	0.744515
H	1.014829	-1.440937	0.369490
$end

$rem
JOBTYPE		SP
EXCHANGE	HF
CORRELATION	pRIMP2
BASIS		cc-pvtz
METHOD		rimp2
AUX_BASIS	rimp2-cc-pvtz
SOLVENT_METHOD	PCM
PURECART	11111
SYMMETRY	false
MEM_TOTAL	110000
SCF_CONVERGENCE = 6
THRESH=10
$end

$solvent
dielectric 4.90
$end
--------------------------------------------------------------

             Standard Nuclear Orientation (Angstroms)
    I     Atom           X                Y                Z
 ----------------------------------------------------------------
    1      C      -0.2657790000    -3.8667250000     0.7281380000
    2      C       0.2092250000    -3.7039630000    -0.5757260000
    3      C       0.3648750000    -2.3570560000    -1.0022900000
    4      H       0.4451760000    -4.5610920000    -1.2244860000
    5      C       0.0000000000    -1.4406640000     0.0000000000
    6      S      -0.5282360000    -2.2869570000     1.4513430000
    7      C       0.8628080000    -1.9787430000    -2.3696830000
    8      H       1.0833680000    -2.8786780000    -2.9758830000
    9      H       1.7935220000    -1.3760150000    -2.3171420000
   10      H       0.1163750000    -1.3757280000    -2.9277870000
   11      C       0.0000000000     0.0000000000     0.0000000000
   12      C       0.6615770000     0.5550870000     1.0994460000
   13      C       1.7217240000     1.4446300000     0.7767210000
   14      H       0.3790560000     0.3180320000     2.1360880000
   15      C       1.8907720000     1.5864490000    -0.6125460000
   16      S       0.7219350000     0.6057440000    -1.4868090000
   17      C       2.5550040000     2.1438050000     1.8146090000
   18      H       2.2289460000     1.8702110000     2.8366760000
   19      H       2.4826050000     3.2479870000     1.7262390000
   20      H       3.6298300000     1.8807350000     1.7262280000
   21      H       2.6179270000     2.1965790000    -1.1615750000
   22      H       0.4597430000    -4.3927130000     1.3585850000
   23      H      -1.2270090000    -4.3923470000     0.7445150000
   24      H       1.0148290000    -1.4409370000     0.3694900000
 ----------------------------------------------------------------

   11   -1180.6865281849      5.36e-07  Convergence criterion met
 Total energy in the final basis set =    -1180.6865281849
        RIMP2         total energy =     -1182.7128405278 a.u.

                    Orbital Energies (a.u.)
 --------------------------------------------------------------

 Alpha MOs
 -- Occupied --
-91.9789 -91.9395 -11.2716 -11.2710 -11.2618 -11.2559 -11.2517 -11.2403
-11.2399 -11.2291 -11.2278 -11.2165  -8.9803  -8.9444  -6.6609  -6.6603
 -6.6599  -6.6258  -6.6248  -6.6236  -1.2077  -1.1524  -1.0608  -1.0285
 -1.0072  -0.9545  -0.9127  -0.9050  -0.8059  -0.7729  -0.7242  -0.7010
 -0.6640  -0.6437  -0.6115  -0.5865  -0.5838  -0.5748  -0.5693  -0.5547
 -0.5414  -0.5322  -0.5183  -0.5175  -0.4909  -0.4618  -0.4487  -0.4394
 -0.3542  -0.3366  -0.3252  -0.2593

          Ground-State Mulliken Net Atomic Charges

     Atom                 Charge (a.u.)
  ----------------------------------------
      1 C                    -0.072187
      2 C                    -0.329536
      3 C                    -0.046741
      4 H                     0.177018
      5 C                     0.074739
      6 S                    -0.206338
      7 C                    -0.274945
      8 H                     0.108765
      9 H                     0.109702
     10 H                     0.109435
     11 C                    -0.077465
     12 C                    -0.207318
     13 C                     0.005229
     14 H                     0.185429
     15 C                    -0.239426
     16 S                     0.033471
     17 C                    -0.267657
     18 H                     0.103613
     19 H                     0.107805
     20 H                     0.104985
     21 H                     0.199397
     22 H                     0.109047
     23 H                     0.111941
     24 H                     0.181038
  ----------------------------------------
  Sum of atomic charges =     0.000000

                    Cartesian Multipole Moments
 -----------------------------------------------------------------
    Charge (ESU x 10^10)
                -0.0000
    Dipole Moment (Debye)
         X       3.3743      Y       0.1361      Z      -0.8983
       Tot       3.4945
    Quadrupole Moments (Debye-Ang)
        XX     -85.3731     XY       3.0199     YY     -81.3478
        XZ       0.6202     YZ       3.2178     ZZ     -84.9224

 Total job time:  750.77s(wall), 746.28s(cpu)
        *  Thank you very much for using Q-Chem.  Have a nice day.  *
