 Q-Chem 5.4, Q-Chem, Inc., Pleasanton, CA (2021)
 Q-Chem 5.4.0 for Intel X86 EM64T Linux

User input:
--------------------------------------------------------------
$molecule
0 1
C	0.670748	-3.808105	0.775127
C	0.642889	-3.647744	-0.612565
C	0.409365	-2.321236	-1.066639
H	0.791563	-4.491881	-1.302900
C	0.250169	-1.418777	0.000000
S	0.397135	-2.252211	1.544483
C	0.343896	-1.948630	-2.521872
H	0.500095	-2.834906	-3.166949
H	1.118228	-1.200068	-2.790821
H	-0.639561	-1.509723	-2.791023
C	0.000000	0.000000	0.000000
C	0.295399	0.811508	1.099446
C	0.768742	2.111949	0.776721
H	0.169256	0.464952	2.136088
C	0.844232	2.319291	-0.612546
S	0.322342	0.885558	-1.486809
C	1.140796	3.134091	1.814609
H	0.995218	2.734123	2.836676
H	0.526006	4.054142	1.726239
H	2.203157	3.443680	1.726228
H	1.168902	3.211257	-1.161575
H	1.645845	-4.170271	1.119411
H	-0.122001	-4.481618	1.119277
H	1.313809	-1.231506	0.000115
$end

$rem
JOBTYPE		SP
EXCHANGE	HF
CORRELATION	pRIMP2
BASIS		cc-pvtz
METHOD		rimp2
AUX_BASIS	rimp2-cc-pvtz
SOLVENT_METHOD	PCM
PURECART	11111
SYMMETRY	false
MEM_TOTAL	110000
SCF_CONVERGENCE = 6
THRESH=10
$end

$solvent
dielectric 4.90
$end
--------------------------------------------------------------

             Standard Nuclear Orientation (Angstroms)
    I     Atom           X                Y                Z
 ----------------------------------------------------------------
    1      C       0.6707480000    -3.8081050000     0.7751270000
    2      C       0.6428890000    -3.6477440000    -0.6125650000
    3      C       0.4093650000    -2.3212360000    -1.0666390000
    4      H       0.7915630000    -4.4918810000    -1.3029000000
    5      C       0.2501690000    -1.4187770000     0.0000000000
    6      S       0.3971350000    -2.2522110000     1.5444830000
    7      C       0.3438960000    -1.9486300000    -2.5218720000
    8      H       0.5000950000    -2.8349060000    -3.1669490000
    9      H       1.1182280000    -1.2000680000    -2.7908210000
   10      H      -0.6395610000    -1.5097230000    -2.7910230000
   11      C       0.0000000000     0.0000000000     0.0000000000
   12      C       0.2953990000     0.8115080000     1.0994460000
   13      C       0.7687420000     2.1119490000     0.7767210000
   14      H       0.1692560000     0.4649520000     2.1360880000
   15      C       0.8442320000     2.3192910000    -0.6125460000
   16      S       0.3223420000     0.8855580000    -1.4868090000
   17      C       1.1407960000     3.1340910000     1.8146090000
   18      H       0.9952180000     2.7341230000     2.8366760000
   19      H       0.5260060000     4.0541420000     1.7262390000
   20      H       2.2031570000     3.4436800000     1.7262280000
   21      H       1.1689020000     3.2112570000    -1.1615750000
   22      H       1.6458450000    -4.1702710000     1.1194110000
   23      H      -0.1220010000    -4.4816180000     1.1192770000
   24      H       1.3138090000    -1.2315060000     0.0001150000
 ----------------------------------------------------------------

   10   -1180.7410596367      4.98e-07  Convergence criterion met
 Total energy in the final basis set =    -1180.7410596367
        RIMP2         total energy =     -1182.7520247903 a.u.

                    Orbital Energies (a.u.)
 --------------------------------------------------------------

 Alpha MOs
 -- Occupied --
-91.9793 -91.9451 -11.2866 -11.2640 -11.2618 -11.2575 -11.2505 -11.2433
-11.2326 -11.2312 -11.2278 -11.2219  -8.9799  -8.9498  -6.6608  -6.6602
 -6.6595  -6.6311  -6.6301  -6.6289  -1.2045  -1.1525  -1.0612  -1.0284
 -1.0064  -0.9557  -0.9157  -0.9024  -0.8121  -0.7730  -0.7178  -0.7032
 -0.6617  -0.6481  -0.6118  -0.5900  -0.5831  -0.5719  -0.5690  -0.5535
 -0.5423  -0.5344  -0.5164  -0.5125  -0.4895  -0.4771  -0.4566  -0.4428
 -0.3583  -0.3414  -0.3274  -0.2632

          Ground-State Mulliken Net Atomic Charges

     Atom                 Charge (a.u.)
  ----------------------------------------
      1 C                    -0.074851
      2 C                    -0.315706
      3 C                    -0.055132
      4 H                     0.178171
      5 C                     0.111686
      6 S                    -0.194040
      7 C                    -0.305877
      8 H                     0.118483
      9 H                     0.110994
     10 H                     0.116937
     11 C                     0.009553
     12 C                    -0.325449
     13 C                     0.053286
     14 H                     0.177566
     15 C                    -0.277541
     16 S                     0.008409
     17 C                    -0.269715
     18 H                     0.103000
     19 H                     0.108693
     20 H                     0.107819
     21 H                     0.196579
     22 H                     0.111601
     23 H                     0.112988
     24 H                     0.192547
  ----------------------------------------
  Sum of atomic charges =     0.000000

                    Cartesian Multipole Moments
 -----------------------------------------------------------------
    Charge (ESU x 10^10)
                -0.0000
    Dipole Moment (Debye)
         X       1.6944      Y      -0.1165      Z      -1.0746
       Tot       2.0098
    Quadrupole Moments (Debye-Ang)
        XX     -89.7654     XY       0.4563     YY     -75.2947
        XZ       0.0220     YZ       4.5188     ZZ     -85.5191

 Total job time:  665.96s(wall), 661.20s(cpu)
        *  Thank you very much for using Q-Chem.  Have a nice day.  *
