 Q-Chem 5.4, Q-Chem, Inc., Pleasanton, CA (2021)
 Q-Chem 5.4.0 for Intel X86 EM64T Linux

User input:
--------------------------------------------------------------
$molecule
0 1
C	-0.594240	-3.866725	0.497696
C	0.469057	-3.703963	-0.393981
C	0.817136	-2.357056	-0.685571
H	0.997777	-4.561092	-0.837848
C	0.000000	-1.440664	0.000000
S	-1.183137	-2.286957	0.992782
C	1.932056	-1.978743	-1.620802
H	2.426166	-2.878678	-2.035506
H	2.711806	-1.376015	-1.109943
H	1.564678	-1.375728	-2.477350
C	0.000000	0.000000	0.000000
C	0.295399	0.811508	1.099446
C	0.768742	2.111949	0.776721
H	0.169256	0.464952	2.136088
C	0.844232	2.319291	-0.612546
S	0.322342	0.885558	-1.486809
C	1.140796	3.134091	1.814609
H	0.995218	2.734123	2.836676
H	0.526006	4.054142	1.726239
H	2.203157	3.443680	1.726228
H	1.168902	3.211257	-1.161575
H	-0.281143	-4.392713	1.406441
H	-1.434879	-4.392347	0.031265
H	-0.694122	-1.440391	-0.827402
$end

$rem
JOBTYPE		SP
EXCHANGE	HF
CORRELATION	pRIMP2
BASIS		cc-pvtz
METHOD		rimp2
AUX_BASIS	rimp2-cc-pvtz
SOLVENT_METHOD	PCM
PURECART	11111
SYMMETRY	false
MEM_TOTAL	110000
SCF_CONVERGENCE = 6
THRESH=10
$end

$solvent
dielectric 4.90
$end
--------------------------------------------------------------

             Standard Nuclear Orientation (Angstroms)
    I     Atom           X                Y                Z
 ----------------------------------------------------------------
    1      C      -0.5942400000    -3.8667250000     0.4976960000
    2      C       0.4690570000    -3.7039630000    -0.3939810000
    3      C       0.8171360000    -2.3570560000    -0.6855710000
    4      H       0.9977770000    -4.5610920000    -0.8378480000
    5      C       0.0000000000    -1.4406640000     0.0000000000
    6      S      -1.1831370000    -2.2869570000     0.9927820000
    7      C       1.9320560000    -1.9787430000    -1.6208020000
    8      H       2.4261660000    -2.8786780000    -2.0355060000
    9      H       2.7118060000    -1.3760150000    -1.1099430000
   10      H       1.5646780000    -1.3757280000    -2.4773500000
   11      C       0.0000000000     0.0000000000     0.0000000000
   12      C       0.2953990000     0.8115080000     1.0994460000
   13      C       0.7687420000     2.1119490000     0.7767210000
   14      H       0.1692560000     0.4649520000     2.1360880000
   15      C       0.8442320000     2.3192910000    -0.6125460000
   16      S       0.3223420000     0.8855580000    -1.4868090000
   17      C       1.1407960000     3.1340910000     1.8146090000
   18      H       0.9952180000     2.7341230000     2.8366760000
   19      H       0.5260060000     4.0541420000     1.7262390000
   20      H       2.2031570000     3.4436800000     1.7262280000
   21      H       1.1689020000     3.2112570000    -1.1615750000
   22      H      -0.2811430000    -4.3927130000     1.4064410000
   23      H      -1.4348790000    -4.3923470000     0.0312650000
   24      H      -0.6941220000    -1.4403910000    -0.8274020000
 ----------------------------------------------------------------

   10   -1180.7485735096      5.30e-07  Convergence criterion met
 Total energy in the final basis set =    -1180.7485735096
        RIMP2         total energy =     -1182.7568447042 a.u.

                    Orbital Energies (a.u.)
 --------------------------------------------------------------

 Alpha MOs
 -- Occupied --
-91.9843 -91.9424 -11.2791 -11.2647 -11.2637 -11.2560 -11.2507 -11.2412
-11.2377 -11.2299 -11.2284 -11.2195  -8.9843  -8.9469  -6.6652  -6.6647
 -6.6640  -6.6283  -6.6273  -6.6260  -1.1993  -1.1534  -1.0593  -1.0248
 -1.0054  -0.9607  -0.9132  -0.9013  -0.8116  -0.7689  -0.7301  -0.7056
 -0.6537  -0.6373  -0.6108  -0.5911  -0.5770  -0.5739  -0.5698  -0.5527
 -0.5421  -0.5303  -0.5151  -0.5077  -0.4901  -0.4772  -0.4608  -0.4459
 -0.3552  -0.3424  -0.3194  -0.2725

          Ground-State Mulliken Net Atomic Charges

     Atom                 Charge (a.u.)
  ----------------------------------------
      1 C                    -0.072638
      2 C                    -0.328406
      3 C                    -0.030965
      4 H                     0.177096
      5 C                     0.086329
      6 S                    -0.178945
      7 C                    -0.277804
      8 H                     0.114273
      9 H                     0.114946
     10 H                     0.104105
     11 C                    -0.099345
     12 C                    -0.226552
     13 C                     0.020495
     14 H                     0.187594
     15 C                    -0.236953
     16 S                     0.006313
     17 C                    -0.271415
     18 H                     0.103043
     19 H                     0.107973
     20 H                     0.107326
     21 H                     0.197984
     22 H                     0.111364
     23 H                     0.110936
     24 H                     0.173245
  ----------------------------------------
  Sum of atomic charges =     0.000000

                    Cartesian Multipole Moments
 -----------------------------------------------------------------
    Charge (ESU x 10^10)
                -0.0000
    Dipole Moment (Debye)
         X       2.0499      Y       0.4770      Z      -0.7620
       Tot       2.2384
    Quadrupole Moments (Debye-Ang)
        XX     -90.1902     XY       1.7529     YY     -74.9556
        XZ       0.1865     YZ       4.2605     ZZ     -86.0930

 Total job time:  670.13s(wall), 663.13s(cpu)
        *  Thank you very much for using Q-Chem.  Have a nice day.  *
