 Q-Chem 5.4, Q-Chem, Inc., Pleasanton, CA (2021)
 Q-Chem 5.4.0 for Intel X86 EM64T Linux

User input:
--------------------------------------------------------------
$molecule
0 1
C	0.775127	-3.866725	0.000713
C	-0.612565	-3.703963	0.000302
C	-1.066639	-2.357056	-0.000067
H	-1.302900	-4.561092	0.000470
C	-0.000000	-1.440664	-0.000000
S	1.544483	-2.286957	-0.000009
C	-2.521872	-1.978743	-0.000295
H	-3.166949	-2.878678	-0.000221
H	-2.790821	-1.376015	-0.892850
H	-2.791023	-1.375728	0.892005
C	0.000000	0.000000	0.000000
C	0.555137	0.661535	1.099446
C	1.444710	1.721658	0.776721
H	0.318072	0.379023	2.136088
C	1.586563	1.890676	-0.612546
S	0.605781	0.721904	-1.486809
C	2.143920	2.554907	1.814609
H	1.870325	2.228851	2.836676
H	1.880882	3.629742	1.726239
H	3.248098	2.482476	1.726228
H	2.196723	2.617806	-1.161575
H	1.119411	-4.392713	-0.896681
H	1.119277	-4.392347	0.898372
H	0.000115	-1.440937	-1.080000
$end

$rem
JOBTYPE		SP
EXCHANGE	HF
CORRELATION	pRIMP2
BASIS		cc-pvtz
METHOD		rimp2
AUX_BASIS	rimp2-cc-pvtz
SOLVENT_METHOD	PCM
PURECART	11111
SYMMETRY	false
MEM_TOTAL	110000
SCF_CONVERGENCE = 6
THRESH=10
$end

$solvent
dielectric 4.90
$end
--------------------------------------------------------------

             Standard Nuclear Orientation (Angstroms)
    I     Atom           X                Y                Z
 ----------------------------------------------------------------
    1      C       0.7751270000    -3.8667250000     0.0007130000
    2      C      -0.6125650000    -3.7039630000     0.0003020000
    3      C      -1.0666390000    -2.3570560000    -0.0000670000
    4      H      -1.3029000000    -4.5610920000     0.0004700000
    5      C       0.0000000000    -1.4406640000     0.0000000000
    6      S       1.5444830000    -2.2869570000    -0.0000090000
    7      C      -2.5218720000    -1.9787430000    -0.0002950000
    8      H      -3.1669490000    -2.8786780000    -0.0002210000
    9      H      -2.7908210000    -1.3760150000    -0.8928500000
   10      H      -2.7910230000    -1.3757280000     0.8920050000
   11      C       0.0000000000     0.0000000000     0.0000000000
   12      C       0.5551370000     0.6615350000     1.0994460000
   13      C       1.4447100000     1.7216580000     0.7767210000
   14      H       0.3180720000     0.3790230000     2.1360880000
   15      C       1.5865630000     1.8906760000    -0.6125460000
   16      S       0.6057810000     0.7219040000    -1.4868090000
   17      C       2.1439200000     2.5549070000     1.8146090000
   18      H       1.8703250000     2.2288510000     2.8366760000
   19      H       1.8808820000     3.6297420000     1.7262390000
   20      H       3.2480980000     2.4824760000     1.7262280000
   21      H       2.1967230000     2.6178060000    -1.1615750000
   22      H       1.1194110000    -4.3927130000    -0.8966810000
   23      H       1.1192770000    -4.3923470000     0.8983720000
   24      H       0.0001150000    -1.4409370000    -1.0800000000
 ----------------------------------------------------------------

   10   -1180.7286046932      6.15e-07  Convergence criterion met
 Total energy in the final basis set =    -1180.7286046932
        RIMP2         total energy =     -1182.7403365571 a.u.

                    Orbital Energies (a.u.)
 --------------------------------------------------------------

 Alpha MOs
 -- Occupied --
-91.9834 -91.9376 -11.2757 -11.2650 -11.2581 -11.2513 -11.2509 -11.2474
-11.2383 -11.2301 -11.2291 -11.2140  -8.9837  -8.9425  -6.6645  -6.6638
 -6.6633  -6.6238  -6.6228  -6.6215  -1.1996  -1.1536  -1.0580  -1.0254
 -1.0011  -0.9630  -0.9111  -0.9003  -0.8099  -0.7619  -0.7429  -0.7028
 -0.6512  -0.6302  -0.6124  -0.5865  -0.5779  -0.5745  -0.5664  -0.5521
 -0.5416  -0.5313  -0.5080  -0.5068  -0.4883  -0.4719  -0.4641  -0.4461
 -0.3585  -0.3350  -0.3124  -0.2789

          Ground-State Mulliken Net Atomic Charges

     Atom                 Charge (a.u.)
  ----------------------------------------
      1 C                    -0.074732
      2 C                    -0.329847
      3 C                    -0.045615
      4 H                     0.173800
      5 C                     0.064164
      6 S                    -0.179593
      7 C                    -0.271263
      8 H                     0.112680
      9 H                     0.102172
     10 H                     0.105017
     11 C                    -0.096107
     12 C                    -0.207102
     13 C                     0.030806
     14 H                     0.182516
     15 C                    -0.215726
     16 S                     0.014985
     17 C                    -0.268793
     18 H                     0.102870
     19 H                     0.107468
     20 H                     0.107412
     21 H                     0.200300
     22 H                     0.107921
     23 H                     0.110102
     24 H                     0.166566
  ----------------------------------------
  Sum of atomic charges =     0.000000

                    Cartesian Multipole Moments
 -----------------------------------------------------------------
    Charge (ESU x 10^10)
                -0.0000
    Dipole Moment (Debye)
         X      -0.7748      Y       0.9923      Z       0.8488
       Tot       1.5184
    Quadrupole Moments (Debye-Ang)
        XX     -87.0311     XY       9.3174     YY     -79.1303
        XZ       0.2069     YZ       1.9904     ZZ     -85.5228

 Total job time:  654.07s(wall), 649.56s(cpu)
        *  Thank you very much for using Q-Chem.  Have a nice day.  *
