 Q-Chem 5.4, Q-Chem, Inc., Pleasanton, CA (2021)
 Q-Chem 5.4.0 for Intel X86 EM64T Linux

User input:
--------------------------------------------------------------
$molecule
0 1
C	-0.498788	-3.866725	0.593324
C	0.393517	-3.703963	-0.469446
C	0.685674	-2.357056	-0.817050
H	0.837128	-4.561092	-0.998381
C	-0.000000	-1.440664	-0.000000
S	-0.992768	-2.286957	1.183149
C	1.621254	-1.978743	-1.931676
H	2.035845	-2.878678	-2.425882
H	2.477868	-1.376015	-1.563980
H	1.110719	-1.375728	-2.711417
C	0.000000	0.000000	0.000000
C	0.149995	0.850475	1.099446
C	0.390327	2.213354	0.776721
H	0.085947	0.487279	2.136088
C	0.428665	2.430655	-0.612546
S	0.163670	0.928078	-1.486809
C	0.579235	3.284574	1.814609
H	0.505323	2.865404	2.836676
H	-0.185980	4.083890	1.726239
H	1.571698	3.773937	1.726228
H	0.593515	3.365448	-1.161575
H	-0.032646	-4.392713	1.433894
H	-1.407651	-4.392347	0.279954
H	-0.827254	-1.440391	-0.694299
$end

$rem
JOBTYPE		SP
EXCHANGE	HF
CORRELATION	pRIMP2
BASIS		cc-pvtz
METHOD		rimp2
AUX_BASIS	rimp2-cc-pvtz
SOLVENT_METHOD	PCM
PURECART	11111
SYMMETRY	false
MEM_TOTAL	110000
SCF_CONVERGENCE = 6
THRESH=10
$end

$solvent
dielectric 4.90
$end
--------------------------------------------------------------

             Standard Nuclear Orientation (Angstroms)
    I     Atom           X                Y                Z
 ----------------------------------------------------------------
    1      C      -0.4987880000    -3.8667250000     0.5933240000
    2      C       0.3935170000    -3.7039630000    -0.4694460000
    3      C       0.6856740000    -2.3570560000    -0.8170500000
    4      H       0.8371280000    -4.5610920000    -0.9983810000
    5      C       0.0000000000    -1.4406640000     0.0000000000
    6      S      -0.9927680000    -2.2869570000     1.1831490000
    7      C       1.6212540000    -1.9787430000    -1.9316760000
    8      H       2.0358450000    -2.8786780000    -2.4258820000
    9      H       2.4778680000    -1.3760150000    -1.5639800000
   10      H       1.1107190000    -1.3757280000    -2.7114170000
   11      C       0.0000000000     0.0000000000     0.0000000000
   12      C       0.1499950000     0.8504750000     1.0994460000
   13      C       0.3903270000     2.2133540000     0.7767210000
   14      H       0.0859470000     0.4872790000     2.1360880000
   15      C       0.4286650000     2.4306550000    -0.6125460000
   16      S       0.1636700000     0.9280780000    -1.4868090000
   17      C       0.5792350000     3.2845740000     1.8146090000
   18      H       0.5053230000     2.8654040000     2.8366760000
   19      H      -0.1859800000     4.0838900000     1.7262390000
   20      H       1.5716980000     3.7739370000     1.7262280000
   21      H       0.5935150000     3.3654480000    -1.1615750000
   22      H      -0.0326460000    -4.3927130000     1.4338940000
   23      H      -1.4076510000    -4.3923470000     0.2799540000
   24      H      -0.8272540000    -1.4403910000    -0.6942990000
 ----------------------------------------------------------------

   10   -1180.7560604677      4.95e-07  Convergence criterion met
 Total energy in the final basis set =    -1180.7560604677
        RIMP2         total energy =     -1182.7620514305 a.u.

                    Orbital Energies (a.u.)
 --------------------------------------------------------------

 Alpha MOs
 -- Occupied --
-91.9833 -91.9443 -11.2844 -11.2648 -11.2600 -11.2583 -11.2501 -11.2425
-11.2345 -11.2314 -11.2279 -11.2213  -8.9833  -8.9488  -6.6643  -6.6637
 -6.6631  -6.6302  -6.6292  -6.6279  -1.2004  -1.1529  -1.0600  -1.0262
 -1.0057  -0.9594  -0.9146  -0.9012  -0.8133  -0.7702  -0.7264  -0.7050
 -0.6552  -0.6411  -0.6106  -0.5925  -0.5783  -0.5731  -0.5692  -0.5531
 -0.5422  -0.5322  -0.5144  -0.5082  -0.4896  -0.4817  -0.4602  -0.4464
 -0.3567  -0.3424  -0.3221  -0.2703

          Ground-State Mulliken Net Atomic Charges

     Atom                 Charge (a.u.)
  ----------------------------------------
      1 C                    -0.074498
      2 C                    -0.324176
      3 C                    -0.046053
      4 H                     0.177866
      5 C                     0.130066
      6 S                    -0.178273
      7 C                    -0.284745
      8 H                     0.115920
      9 H                     0.116754
     10 H                     0.103607
     11 C                    -0.097628
     12 C                    -0.244563
     13 C                     0.022112
     14 H                     0.186412
     15 C                    -0.248927
     16 S                     0.002549
     17 C                    -0.272482
     18 H                     0.102845
     19 H                     0.108124
     20 H                     0.107836
     21 H                     0.197285
     22 H                     0.112037
     23 H                     0.112695
     24 H                     0.175238
  ----------------------------------------
  Sum of atomic charges =     0.000000

                    Cartesian Multipole Moments
 -----------------------------------------------------------------
    Charge (ESU x 10^10)
                -0.0000
    Dipole Moment (Debye)
         X       1.2554      Y       0.1189      Z      -0.9860
       Tot       1.6007
    Quadrupole Moments (Debye-Ang)
        XX     -91.0901     XY       0.6869     YY     -73.6421
        XZ      -0.1124     YZ       4.6606     ZZ     -86.1098

 Total job time:  651.96s(wall), 647.68s(cpu)
        *  Thank you very much for using Q-Chem.  Have a nice day.  *
