 Q-Chem 5.4, Q-Chem, Inc., Pleasanton, CA (2021)
 Q-Chem 5.4.0 for Intel X86 EM64T Linux

User input:
--------------------------------------------------------------
$molecule
0 1
C	-0.498788	-3.866725	0.593324
C	0.393517	-3.703963	-0.469446
C	0.685674	-2.357056	-0.817050
H	0.837128	-4.561092	-0.998381
C	-0.000000	-1.440664	-0.000000
S	-0.992768	-2.286957	1.183149
C	1.621254	-1.978743	-1.931676
H	2.035845	-2.878678	-2.425882
H	2.477868	-1.376015	-1.563980
H	1.110719	-1.375728	-2.711417
C	0.000000	0.000000	0.000000
C	0.075300	0.860311	1.099446
C	0.195935	2.238951	0.776721
H	0.043151	0.492916	2.136088
C	0.215188	2.458766	-0.612546
S	0.082160	0.938811	-1.486809
C	0.290762	3.322559	1.814609
H	0.253664	2.898542	2.836676
H	-0.541206	4.052140	1.726239
H	1.236797	3.896558	1.726228
H	0.297938	3.404370	-1.161575
H	-0.032646	-4.392713	1.433894
H	-1.407651	-4.392347	0.279954
H	0.827254	-1.440937	0.694299
$end

$rem
JOBTYPE		SP
EXCHANGE	HF
CORRELATION	pRIMP2
BASIS		cc-pvtz
METHOD		rimp2
AUX_BASIS	rimp2-cc-pvtz
SOLVENT_METHOD	PCM
PURECART	11111
SYMMETRY	false
MEM_TOTAL	110000
SCF_CONVERGENCE = 6
THRESH=10
$end

$solvent
dielectric 4.90
$end
--------------------------------------------------------------

             Standard Nuclear Orientation (Angstroms)
    I     Atom           X                Y                Z
 ----------------------------------------------------------------
    1      C      -0.4987880000    -3.8667250000     0.5933240000
    2      C       0.3935170000    -3.7039630000    -0.4694460000
    3      C       0.6856740000    -2.3570560000    -0.8170500000
    4      H       0.8371280000    -4.5610920000    -0.9983810000
    5      C       0.0000000000    -1.4406640000     0.0000000000
    6      S      -0.9927680000    -2.2869570000     1.1831490000
    7      C       1.6212540000    -1.9787430000    -1.9316760000
    8      H       2.0358450000    -2.8786780000    -2.4258820000
    9      H       2.4778680000    -1.3760150000    -1.5639800000
   10      H       1.1107190000    -1.3757280000    -2.7114170000
   11      C       0.0000000000     0.0000000000     0.0000000000
   12      C       0.0753000000     0.8603110000     1.0994460000
   13      C       0.1959350000     2.2389510000     0.7767210000
   14      H       0.0431510000     0.4929160000     2.1360880000
   15      C       0.2151880000     2.4587660000    -0.6125460000
   16      S       0.0821600000     0.9388110000    -1.4868090000
   17      C       0.2907620000     3.3225590000     1.8146090000
   18      H       0.2536640000     2.8985420000     2.8366760000
   19      H      -0.5412060000     4.0521400000     1.7262390000
   20      H       1.2367970000     3.8965580000     1.7262280000
   21      H       0.2979380000     3.4043700000    -1.1615750000
   22      H      -0.0326460000    -4.3927130000     1.4338940000
   23      H      -1.4076510000    -4.3923470000     0.2799540000
   24      H       0.8272540000    -1.4409370000     0.6942990000
 ----------------------------------------------------------------

   10   -1180.7592842039      4.91e-07  Convergence criterion met
 Total energy in the final basis set =    -1180.7592842039
        RIMP2         total energy =     -1182.7651680665 a.u.

                    Orbital Energies (a.u.)
 --------------------------------------------------------------

 Alpha MOs
 -- Occupied --
-91.9822 -91.9440 -11.2877 -11.2649 -11.2586 -11.2567 -11.2506 -11.2427
-11.2345 -11.2321 -11.2282 -11.2217  -8.9821  -8.9487  -6.6630  -6.6624
 -6.6618  -6.6301  -6.6290  -6.6277  -1.2007  -1.1526  -1.0597  -1.0269
 -1.0074  -0.9569  -0.9144  -0.9013  -0.8147  -0.7692  -0.7248  -0.7007
 -0.6627  -0.6445  -0.6107  -0.5872  -0.5811  -0.5735  -0.5680  -0.5533
 -0.5423  -0.5330  -0.5146  -0.5074  -0.4912  -0.4822  -0.4580  -0.4488
 -0.3568  -0.3432  -0.3212  -0.2683

          Ground-State Mulliken Net Atomic Charges

     Atom                 Charge (a.u.)
  ----------------------------------------
      1 C                    -0.076343
      2 C                    -0.323258
      3 C                    -0.031519
      4 H                     0.177965
      5 C                     0.094409
      6 S                    -0.176356
      7 C                    -0.287027
      8 H                     0.116005
      9 H                     0.111274
     10 H                     0.109795
     11 C                    -0.041310
     12 C                    -0.281643
     13 C                     0.030058
     14 H                     0.182881
     15 C                    -0.262007
     16 S                     0.007308
     17 C                    -0.272024
     18 H                     0.102577
     19 H                     0.108565
     20 H                     0.107777
     21 H                     0.195730
     22 H                     0.110747
     23 H                     0.113935
     24 H                     0.182461
  ----------------------------------------
  Sum of atomic charges =     0.000000

                    Cartesian Multipole Moments
 -----------------------------------------------------------------
    Charge (ESU x 10^10)
                -0.0000
    Dipole Moment (Debye)
         X       2.3620      Y      -0.0876      Z       0.0824
       Tot       2.3650
    Quadrupole Moments (Debye-Ang)
        XX     -91.8763     XY      -2.5373     YY     -73.6572
        XZ      -0.0031     YZ       2.9621     ZZ     -85.5369

 Total job time:  650.42s(wall), 645.15s(cpu)
        *  Thank you very much for using Q-Chem.  Have a nice day.  *
