 Q-Chem 5.4, Q-Chem, Inc., Pleasanton, CA (2021)
 Q-Chem 5.4.0 for Intel X86 EM64T Linux

User input:
--------------------------------------------------------------
$molecule
0 1
C	-0.728625	-3.866725	0.264439
C	0.575519	-3.703963	-0.209794
C	1.002336	-2.357056	-0.364749
H	1.224165	-4.561092	-0.446060
C	0.000000	-1.440664	0.000000
S	-1.451336	-2.286957	0.528253
C	2.369885	-1.978743	-0.862253
H	2.976034	-2.878678	-1.082953
H	2.927887	-1.376015	-0.115513
H	2.317620	-1.375728	-1.792797
C	0.000000	0.000000	0.000000
C	0.431829	0.747884	1.099446
C	1.123799	1.946373	0.776721
H	0.247423	0.428497	2.136088
C	1.234147	2.137457	-0.612546
S	0.471221	0.816130	-1.486809
C	1.667694	2.888380	1.814609
H	1.454874	2.519768	2.836676
H	1.222009	3.901210	1.726239
H	2.767675	3.008788	1.726228
H	1.708773	2.959493	-1.161575
H	-0.745219	-4.392713	1.225465
H	-1.359038	-4.392347	-0.461378
H	-0.369273	-1.440391	-1.014907
$end

$rem
JOBTYPE		SP
EXCHANGE	HF
CORRELATION	pRIMP2
BASIS		cc-pvtz
METHOD		rimp2
AUX_BASIS	rimp2-cc-pvtz
SOLVENT_METHOD	PCM
PURECART	11111
SYMMETRY	false
MEM_TOTAL	110000
SCF_CONVERGENCE = 6
THRESH=10
$end

$solvent
dielectric 4.90
$end
--------------------------------------------------------------

             Standard Nuclear Orientation (Angstroms)
    I     Atom           X                Y                Z
 ----------------------------------------------------------------
    1      C      -0.7286250000    -3.8667250000     0.2644390000
    2      C       0.5755190000    -3.7039630000    -0.2097940000
    3      C       1.0023360000    -2.3570560000    -0.3647490000
    4      H       1.2241650000    -4.5610920000    -0.4460600000
    5      C       0.0000000000    -1.4406640000     0.0000000000
    6      S      -1.4513360000    -2.2869570000     0.5282530000
    7      C       2.3698850000    -1.9787430000    -0.8622530000
    8      H       2.9760340000    -2.8786780000    -1.0829530000
    9      H       2.9278870000    -1.3760150000    -0.1155130000
   10      H       2.3176200000    -1.3757280000    -1.7927970000
   11      C       0.0000000000     0.0000000000     0.0000000000
   12      C       0.4318290000     0.7478840000     1.0994460000
   13      C       1.1237990000     1.9463730000     0.7767210000
   14      H       0.2474230000     0.4284970000     2.1360880000
   15      C       1.2341470000     2.1374570000    -0.6125460000
   16      S       0.4712210000     0.8161300000    -1.4868090000
   17      C       1.6676940000     2.8883800000     1.8146090000
   18      H       1.4548740000     2.5197680000     2.8366760000
   19      H       1.2220090000     3.9012100000     1.7262390000
   20      H       2.7676750000     3.0087880000     1.7262280000
   21      H       1.7087730000     2.9594930000    -1.1615750000
   22      H      -0.7452190000    -4.3927130000     1.2254650000
   23      H      -1.3590380000    -4.3923470000    -0.4613780000
   24      H      -0.3692730000    -1.4403910000    -1.0149070000
 ----------------------------------------------------------------

   10   -1180.7398507545      5.99e-07  Convergence criterion met
 Total energy in the final basis set =    -1180.7398507545
        RIMP2         total energy =     -1182.7503356909 a.u.

                    Orbital Energies (a.u.)
 --------------------------------------------------------------

 Alpha MOs
 -- Occupied --
-91.9857 -91.9388 -11.2715 -11.2715 -11.2615 -11.2532 -11.2518 -11.2432
-11.2390 -11.2294 -11.2290 -11.2175  -8.9856  -8.9435  -6.6665  -6.6659
 -6.6654  -6.6249  -6.6238  -6.6226  -1.1986  -1.1540  -1.0587  -1.0234
 -1.0045  -0.9630  -0.9120  -0.9011  -0.8093  -0.7663  -0.7374  -0.7062
 -0.6521  -0.6323  -0.6116  -0.5880  -0.5763  -0.5743  -0.5707  -0.5530
 -0.5423  -0.5279  -0.5174  -0.5047  -0.4905  -0.4728  -0.4627  -0.4447
 -0.3533  -0.3431  -0.3151  -0.2770

          Ground-State Mulliken Net Atomic Charges

     Atom                 Charge (a.u.)
  ----------------------------------------
      1 C                    -0.073034
      2 C                    -0.331997
      3 C                    -0.021661
      4 H                     0.175713
      5 C                     0.068945
      6 S                    -0.185538
      7 C                    -0.273571
      8 H                     0.114786
      9 H                     0.109812
     10 H                     0.105512
     11 C                    -0.096056
     12 C                    -0.218828
     13 C                     0.023854
     14 H                     0.186609
     15 C                    -0.227482
     16 S                     0.011542
     17 C                    -0.270248
     18 H                     0.103371
     19 H                     0.107907
     20 H                     0.106629
     21 H                     0.199549
     22 H                     0.110303
     23 H                     0.108153
     24 H                     0.165730
  ----------------------------------------
  Sum of atomic charges =     0.000000

                    Cartesian Multipole Moments
 -----------------------------------------------------------------
    Charge (ESU x 10^10)
                -0.0000
    Dipole Moment (Debye)
         X       3.2185      Y       0.9248      Z      -0.0741
       Tot       3.3496
    Quadrupole Moments (Debye-Ang)
        XX     -88.9322     XY       1.9969     YY     -76.8389
        XZ       0.5898     YZ       3.3285     ZZ     -85.8995

 Total job time:  665.18s(wall), 660.70s(cpu)
        *  Thank you very much for using Q-Chem.  Have a nice day.  *
