 Q-Chem 5.4, Q-Chem, Inc., Pleasanton, CA (2021)
 Q-Chem 5.4.0 for Intel X86 EM64T Linux

User input:
--------------------------------------------------------------
$molecule
0 1
C	0.593324	-3.866725	0.498788
C	-0.469446	-3.703963	-0.393517
C	-0.817050	-2.357056	-0.685674
H	-0.998381	-4.561092	-0.837128
C	-0.000000	-1.440664	-0.000000
S	1.183149	-2.286957	0.992768
C	-1.931676	-1.978743	-1.621254
H	-2.425882	-2.878678	-2.035845
H	-1.563980	-1.376015	-2.477868
H	-2.711417	-1.375728	-1.110719
C	0.000000	0.000000	0.000000
C	0.555137	0.661535	1.099446
C	1.444710	1.721658	0.776721
H	0.318072	0.379023	2.136088
C	1.586563	1.890676	-0.612546
S	0.605781	0.721904	-1.486809
C	2.143920	2.554907	1.814609
H	1.870325	2.228851	2.836676
H	1.880882	3.629742	1.726239
H	3.248098	2.482476	1.726228
H	2.196723	2.617806	-1.161575
H	1.433894	-4.392713	0.032646
H	0.279954	-4.392347	1.407651
H	0.694299	-1.440937	-0.827254
$end

$rem
JOBTYPE		SP
EXCHANGE	HF
CORRELATION	pRIMP2
BASIS		cc-pvtz
METHOD		rimp2
AUX_BASIS	rimp2-cc-pvtz
SOLVENT_METHOD	PCM
PURECART	11111
SYMMETRY	false
MEM_TOTAL	110000
SCF_CONVERGENCE = 6
THRESH=10
$end

$solvent
dielectric 4.90
$end
--------------------------------------------------------------

             Standard Nuclear Orientation (Angstroms)
    I     Atom           X                Y                Z
 ----------------------------------------------------------------
    1      C       0.5933240000    -3.8667250000     0.4987880000
    2      C      -0.4694460000    -3.7039630000    -0.3935170000
    3      C      -0.8170500000    -2.3570560000    -0.6856740000
    4      H      -0.9983810000    -4.5610920000    -0.8371280000
    5      C       0.0000000000    -1.4406640000     0.0000000000
    6      S       1.1831490000    -2.2869570000     0.9927680000
    7      C      -1.9316760000    -1.9787430000    -1.6212540000
    8      H      -2.4258820000    -2.8786780000    -2.0358450000
    9      H      -1.5639800000    -1.3760150000    -2.4778680000
   10      H      -2.7114170000    -1.3757280000    -1.1107190000
   11      C       0.0000000000     0.0000000000     0.0000000000
   12      C       0.5551370000     0.6615350000     1.0994460000
   13      C       1.4447100000     1.7216580000     0.7767210000
   14      H       0.3180720000     0.3790230000     2.1360880000
   15      C       1.5865630000     1.8906760000    -0.6125460000
   16      S       0.6057810000     0.7219040000    -1.4868090000
   17      C       2.1439200000     2.5549070000     1.8146090000
   18      H       1.8703250000     2.2288510000     2.8366760000
   19      H       1.8808820000     3.6297420000     1.7262390000
   20      H       3.2480980000     2.4824760000     1.7262280000
   21      H       2.1967230000     2.6178060000    -1.1615750000
   22      H       1.4338940000    -4.3927130000     0.0326460000
   23      H       0.2799540000    -4.3923470000     1.4076510000
   24      H       0.6942990000    -1.4409370000    -0.8272540000
 ----------------------------------------------------------------

   10   -1180.7268556132      5.87e-07  Convergence criterion met
 Total energy in the final basis set =    -1180.7268556132
        RIMP2         total energy =     -1182.7387061712 a.u.

                    Orbital Energies (a.u.)
 --------------------------------------------------------------

 Alpha MOs
 -- Occupied --
-91.9793 -91.9409 -11.2738 -11.2708 -11.2582 -11.2519 -11.2515 -11.2455
-11.2388 -11.2315 -11.2290 -11.2166  -8.9803  -8.9454  -6.6612  -6.6605
 -6.6599  -6.6268  -6.6258  -6.6245  -1.2026  -1.1535  -1.0597  -1.0258
 -1.0040  -0.9600  -0.9138  -0.9005  -0.8099  -0.7693  -0.7315  -0.7030
 -0.6532  -0.6373  -0.6122  -0.5895  -0.5770  -0.5763  -0.5685  -0.5524
 -0.5419  -0.5341  -0.5137  -0.5079  -0.4861  -0.4732  -0.4629  -0.4437
 -0.3540  -0.3446  -0.3227  -0.2659

          Ground-State Mulliken Net Atomic Charges

     Atom                 Charge (a.u.)
  ----------------------------------------
      1 C                    -0.078931
      2 C                    -0.324698
      3 C                    -0.053300
      4 H                     0.174128
      5 C                     0.093343
      6 S                    -0.184789
      7 C                    -0.277850
      8 H                     0.115045
      9 H                     0.102177
     10 H                     0.109095
     11 C                    -0.047740
     12 C                    -0.288397
     13 C                     0.051909
     14 H                     0.190049
     15 C                    -0.229293
     16 S                     0.003535
     17 C                    -0.267948
     18 H                     0.103166
     19 H                     0.108520
     20 H                     0.108161
     21 H                     0.198182
     22 H                     0.109656
     23 H                     0.107833
     24 H                     0.178148
  ----------------------------------------
  Sum of atomic charges =     0.000000

                    Cartesian Multipole Moments
 -----------------------------------------------------------------
    Charge (ESU x 10^10)
                -0.0000
    Dipole Moment (Debye)
         X       0.0769      Y       0.5373      Z      -0.4556
       Tot       0.7086
    Quadrupole Moments (Debye-Ang)
        XX     -86.6993     XY       7.3708     YY     -78.7894
        XZ       0.6446     YZ       4.2605     ZZ     -85.9859

 Total job time:  652.48s(wall), 648.56s(cpu)
        *  Thank you very much for using Q-Chem.  Have a nice day.  *
