 Q-Chem 5.4, Q-Chem, Inc., Pleasanton, CA (2021)
 Q-Chem 5.4.0 for Intel X86 EM64T Linux

User input:
--------------------------------------------------------------
$molecule
0 1
C	0.133897	-3.866725	0.763475
C	-0.106669	-3.703963	-0.603206
C	-0.185154	-2.357056	-1.050446
H	-0.226709	-4.561092	-1.283024
C	-0.000000	-1.440664	-0.000000
S	0.268206	-2.286957	1.521018
C	-0.437628	-1.978743	-2.483610
H	-0.549717	-2.878678	-3.118875
H	0.394664	-1.376015	-2.903464
H	-1.363110	-1.375728	-2.593726
C	0.000000	0.000000	0.000000
C	0.075300	0.860311	1.099446
C	0.195935	2.238951	0.776721
H	0.043151	0.492916	2.136088
C	0.215188	2.458766	-0.612546
S	0.082160	0.938811	-1.486809
C	0.290762	3.322559	1.814609
H	0.253664	2.898542	2.836676
H	-0.541206	4.052140	1.726239
H	1.236797	3.896558	1.726228
H	0.297938	3.404370	-1.161575
H	1.077442	-4.392713	0.946698
H	-0.690363	-4.392347	1.258274
H	-1.063612	-1.440391	0.187427
$end

$rem
JOBTYPE		SP
EXCHANGE	HF
CORRELATION	pRIMP2
BASIS		cc-pvtz
METHOD		rimp2
AUX_BASIS	rimp2-cc-pvtz
SOLVENT_METHOD	PCM
PURECART	11111
SYMMETRY	false
MEM_TOTAL	110000
SCF_CONVERGENCE = 6
THRESH=10
$end

$solvent
dielectric 4.90
$end
--------------------------------------------------------------

             Standard Nuclear Orientation (Angstroms)
    I     Atom           X                Y                Z
 ----------------------------------------------------------------
    1      C       0.1338970000    -3.8667250000     0.7634750000
    2      C      -0.1066690000    -3.7039630000    -0.6032060000
    3      C      -0.1851540000    -2.3570560000    -1.0504460000
    4      H      -0.2267090000    -4.5610920000    -1.2830240000
    5      C       0.0000000000    -1.4406640000     0.0000000000
    6      S       0.2682060000    -2.2869570000     1.5210180000
    7      C      -0.4376280000    -1.9787430000    -2.4836100000
    8      H      -0.5497170000    -2.8786780000    -3.1188750000
    9      H       0.3946640000    -1.3760150000    -2.9034640000
   10      H      -1.3631100000    -1.3757280000    -2.5937260000
   11      C       0.0000000000     0.0000000000     0.0000000000
   12      C       0.0753000000     0.8603110000     1.0994460000
   13      C       0.1959350000     2.2389510000     0.7767210000
   14      H       0.0431510000     0.4929160000     2.1360880000
   15      C       0.2151880000     2.4587660000    -0.6125460000
   16      S       0.0821600000     0.9388110000    -1.4868090000
   17      C       0.2907620000     3.3225590000     1.8146090000
   18      H       0.2536640000     2.8985420000     2.8366760000
   19      H      -0.5412060000     4.0521400000     1.7262390000
   20      H       1.2367970000     3.8965580000     1.7262280000
   21      H       0.2979380000     3.4043700000    -1.1615750000
   22      H       1.0774420000    -4.3927130000     0.9466980000
   23      H      -0.6903630000    -4.3923470000     1.2582740000
   24      H      -1.0636120000    -1.4403910000     0.1874270000
 ----------------------------------------------------------------

   10   -1180.7578061265      5.13e-07  Convergence criterion met
 Total energy in the final basis set =    -1180.7578061265
        RIMP2         total energy =     -1182.7637693051 a.u.

                    Orbital Energies (a.u.)
 --------------------------------------------------------------

 Alpha MOs
 -- Occupied --
-91.9815 -91.9469 -11.2908 -11.2665 -11.2620 -11.2527 -11.2500 -11.2444
-11.2332 -11.2305 -11.2274 -11.2232  -8.9815  -8.9515  -6.6624  -6.6619
 -6.6612  -6.6328  -6.6318  -6.6305  -1.2027  -1.1522  -1.0610  -1.0288
 -1.0071  -0.9562  -0.9167  -0.9015  -0.8155  -0.7723  -0.7175  -0.7039
 -0.6614  -0.6484  -0.6110  -0.5911  -0.5827  -0.5723  -0.5680  -0.5544
 -0.5423  -0.5344  -0.5161  -0.5095  -0.4876  -0.4858  -0.4579  -0.4462
 -0.3592  -0.3418  -0.3264  -0.2645

          Ground-State Mulliken Net Atomic Charges

     Atom                 Charge (a.u.)
  ----------------------------------------
      1 C                    -0.073262
      2 C                    -0.320260
      3 C                    -0.045615
      4 H                     0.179524
      5 C                     0.149202
      6 S                    -0.183813
      7 C                    -0.310382
      8 H                     0.122210
      9 H                     0.112837
     10 H                     0.114264
     11 C                    -0.030410
     12 C                    -0.323255
     13 C                     0.048501
     14 H                     0.176736
     15 C                    -0.281546
     16 S                     0.009782
     17 C                    -0.272704
     18 H                     0.102654
     19 H                     0.108108
     20 H                     0.108759
     21 H                     0.195615
     22 H                     0.113917
     23 H                     0.111163
     24 H                     0.187977
  ----------------------------------------
  Sum of atomic charges =     0.000000

                    Cartesian Multipole Moments
 -----------------------------------------------------------------
    Charge (ESU x 10^10)
                -0.0000
    Dipole Moment (Debye)
         X      -1.1963      Y      -0.5211      Z      -0.8821
       Tot       1.5751
    Quadrupole Moments (Debye-Ang)
        XX     -91.8005     XY       2.9172     YY     -73.1130
        XZ      -0.0773     YZ       4.4080     ZZ     -85.4436

 Total job time:  656.03s(wall), 652.36s(cpu)
        *  Thank you very much for using Q-Chem.  Have a nice day.  *
