 Q-Chem 5.4, Q-Chem, Inc., Pleasanton, CA (2021)
 Q-Chem 5.4.0 for Intel X86 EM64T Linux

User input:
--------------------------------------------------------------
$molecule
0 1
C	0.670748	-3.808105	0.775127
C	0.642889	-3.647744	-0.612565
C	0.409365	-2.321236	-1.066639
H	0.791563	-4.491881	-1.302900
C	0.250169	-1.418777	0.000000
S	0.397135	-2.252211	1.544483
C	0.343896	-1.948630	-2.521872
H	0.500095	-2.834906	-3.166949
H	1.118228	-1.200068	-2.790821
H	-0.639561	-1.509723	-2.791023
C	0.000000	0.000000	0.000000
C	0.149995	0.850475	1.099446
C	0.390327	2.213354	0.776721
H	0.085947	0.487279	2.136088
C	0.428665	2.430655	-0.612546
S	0.163670	0.928078	-1.486809
C	0.579235	3.284574	1.814609
H	0.505323	2.865404	2.836676
H	-0.185980	4.083890	1.726239
H	1.571698	3.773937	1.726228
H	0.593515	3.365448	-1.161575
H	1.645845	-4.170271	1.119411
H	-0.122001	-4.481618	1.119277
H	1.313809	-1.231506	0.000115
$end

$rem
JOBTYPE		SP
EXCHANGE	HF
CORRELATION	pRIMP2
BASIS		cc-pvtz
METHOD		rimp2
AUX_BASIS	rimp2-cc-pvtz
SOLVENT_METHOD	PCM
PURECART	11111
SYMMETRY	false
MEM_TOTAL	110000
SCF_CONVERGENCE = 6
THRESH=10
$end

$solvent
dielectric 4.90
$end
--------------------------------------------------------------

             Standard Nuclear Orientation (Angstroms)
    I     Atom           X                Y                Z
 ----------------------------------------------------------------
    1      C       0.6707480000    -3.8081050000     0.7751270000
    2      C       0.6428890000    -3.6477440000    -0.6125650000
    3      C       0.4093650000    -2.3212360000    -1.0666390000
    4      H       0.7915630000    -4.4918810000    -1.3029000000
    5      C       0.2501690000    -1.4187770000     0.0000000000
    6      S       0.3971350000    -2.2522110000     1.5444830000
    7      C       0.3438960000    -1.9486300000    -2.5218720000
    8      H       0.5000950000    -2.8349060000    -3.1669490000
    9      H       1.1182280000    -1.2000680000    -2.7908210000
   10      H      -0.6395610000    -1.5097230000    -2.7910230000
   11      C       0.0000000000     0.0000000000     0.0000000000
   12      C       0.1499950000     0.8504750000     1.0994460000
   13      C       0.3903270000     2.2133540000     0.7767210000
   14      H       0.0859470000     0.4872790000     2.1360880000
   15      C       0.4286650000     2.4306550000    -0.6125460000
   16      S       0.1636700000     0.9280780000    -1.4868090000
   17      C       0.5792350000     3.2845740000     1.8146090000
   18      H       0.5053230000     2.8654040000     2.8366760000
   19      H      -0.1859800000     4.0838900000     1.7262390000
   20      H       1.5716980000     3.7739370000     1.7262280000
   21      H       0.5935150000     3.3654480000    -1.1615750000
   22      H       1.6458450000    -4.1702710000     1.1194110000
   23      H      -0.1220010000    -4.4816180000     1.1192770000
   24      H       1.3138090000    -1.2315060000     0.0001150000
 ----------------------------------------------------------------

   10   -1180.7523106912      4.90e-07  Convergence criterion met
 Total energy in the final basis set =    -1180.7523106912
        RIMP2         total energy =     -1182.7598773027 a.u.

                    Orbital Energies (a.u.)
 --------------------------------------------------------------

 Alpha MOs
 -- Occupied --
-91.9804 -91.9463 -11.2897 -11.2652 -11.2629 -11.2542 -11.2501 -11.2441
-11.2323 -11.2305 -11.2275 -11.2230  -8.9807  -8.9509  -6.6616  -6.6610
 -6.6603  -6.6322  -6.6312  -6.6300  -1.2039  -1.1523  -1.0613  -1.0288
 -1.0065  -0.9559  -0.9164  -0.9019  -0.8137  -0.7728  -0.7172  -0.7037
 -0.6617  -0.6488  -0.6115  -0.5910  -0.5827  -0.5716  -0.5686  -0.5540
 -0.5425  -0.5344  -0.5165  -0.5107  -0.4896  -0.4816  -0.4574  -0.4443
 -0.3590  -0.3418  -0.3272  -0.2642

          Ground-State Mulliken Net Atomic Charges

     Atom                 Charge (a.u.)
  ----------------------------------------
      1 C                    -0.074769
      2 C                    -0.313595
      3 C                    -0.056738
      4 H                     0.178731
      5 C                     0.120378
      6 S                    -0.189907
      7 C                    -0.309772
      8 H                     0.120707
      9 H                     0.110765
     10 H                     0.116920
     11 C                     0.014851
     12 C                    -0.338142
     13 C                     0.056425
     14 H                     0.176440
     15 C                    -0.285720
     16 S                     0.007801
     17 C                    -0.270510
     18 H                     0.102706
     19 H                     0.108514
     20 H                     0.108331
     21 H                     0.196271
     22 H                     0.111962
     23 H                     0.113206
     24 H                     0.195147
  ----------------------------------------
  Sum of atomic charges =     0.000000

                    Cartesian Multipole Moments
 -----------------------------------------------------------------
    Charge (ESU x 10^10)
                -0.0000
    Dipole Moment (Debye)
         X       1.4282      Y      -0.2905      Z      -1.0885
       Tot       1.8191
    Quadrupole Moments (Debye-Ang)
        XX     -90.6599     XY      -1.1960     YY     -74.1896
        XZ      -0.1311     YZ       4.6418     ZZ     -85.5429

 Total job time:  687.98s(wall), 683.97s(cpu)
        *  Thank you very much for using Q-Chem.  Have a nice day.  *
