 Q-Chem 5.4, Q-Chem, Inc., Pleasanton, CA (2021)
 Q-Chem 5.4.0 for Intel X86 EM64T Linux

User input:
--------------------------------------------------------------
$molecule
0 1
C	-0.593324	-3.866725	-0.498788
C	0.469446	-3.703963	0.393517
C	0.817050	-2.357056	0.685674
H	0.998381	-4.561092	0.837128
C	-0.000000	-1.440664	-0.000000
S	-1.183149	-2.286957	-0.992768
C	1.931676	-1.978743	1.621254
H	2.425882	-2.878678	2.035845
H	1.563980	-1.376015	2.477868
H	2.711417	-1.375728	1.110719
C	0.000000	0.000000	0.000000
C	0.555137	0.661535	1.099446
C	1.444710	1.721658	0.776721
H	0.318072	0.379023	2.136088
C	1.586563	1.890676	-0.612546
S	0.605781	0.721904	-1.486809
C	2.143920	2.554907	1.814609
H	1.870325	2.228851	2.836676
H	1.880882	3.629742	1.726239
H	3.248098	2.482476	1.726228
H	2.196723	2.617806	-1.161575
H	-1.433894	-4.392713	-0.032646
H	-0.279954	-4.392347	-1.407651
H	0.694299	-1.440391	-0.827254
$end

$rem
JOBTYPE		SP
EXCHANGE	HF
CORRELATION	pRIMP2
BASIS		cc-pvtz
METHOD		rimp2
AUX_BASIS	rimp2-cc-pvtz
SOLVENT_METHOD	PCM
PURECART	11111
SYMMETRY	false
MEM_TOTAL	110000
SCF_CONVERGENCE = 6
THRESH=10
$end

$solvent
dielectric 4.90
$end
--------------------------------------------------------------

             Standard Nuclear Orientation (Angstroms)
    I     Atom           X                Y                Z
 ----------------------------------------------------------------
    1      C      -0.5933240000    -3.8667250000    -0.4987880000
    2      C       0.4694460000    -3.7039630000     0.3935170000
    3      C       0.8170500000    -2.3570560000     0.6856740000
    4      H       0.9983810000    -4.5610920000     0.8371280000
    5      C       0.0000000000    -1.4406640000     0.0000000000
    6      S      -1.1831490000    -2.2869570000    -0.9927680000
    7      C       1.9316760000    -1.9787430000     1.6212540000
    8      H       2.4258820000    -2.8786780000     2.0358450000
    9      H       1.5639800000    -1.3760150000     2.4778680000
   10      H       2.7114170000    -1.3757280000     1.1107190000
   11      C       0.0000000000     0.0000000000     0.0000000000
   12      C       0.5551370000     0.6615350000     1.0994460000
   13      C       1.4447100000     1.7216580000     0.7767210000
   14      H       0.3180720000     0.3790230000     2.1360880000
   15      C       1.5865630000     1.8906760000    -0.6125460000
   16      S       0.6057810000     0.7219040000    -1.4868090000
   17      C       2.1439200000     2.5549070000     1.8146090000
   18      H       1.8703250000     2.2288510000     2.8366760000
   19      H       1.8808820000     3.6297420000     1.7262390000
   20      H       3.2480980000     2.4824760000     1.7262280000
   21      H       2.1967230000     2.6178060000    -1.1615750000
   22      H      -1.4338940000    -4.3927130000    -0.0326460000
   23      H      -0.2799540000    -4.3923470000    -1.4076510000
   24      H       0.6942990000    -1.4403910000    -0.8272540000
 ----------------------------------------------------------------

   10   -1180.7241246663      6.21e-07  Convergence criterion met
 Total energy in the final basis set =    -1180.7241246663
        RIMP2         total energy =     -1182.7381238724 a.u.

                    Orbital Energies (a.u.)
 --------------------------------------------------------------

 Alpha MOs
 -- Occupied --
-91.9791 -91.9368 -11.2726 -11.2722 -11.2621 -11.2528 -11.2518 -11.2467
-11.2393 -11.2309 -11.2303 -11.2181  -8.9800  -8.9419  -6.6609  -6.6602
 -6.6597  -6.6233  -6.6223  -6.6210  -1.2028  -1.1538  -1.0599  -1.0281
 -0.9997  -0.9656  -0.9124  -0.9008  -0.8091  -0.7601  -0.7466  -0.7062
 -0.6506  -0.6369  -0.6123  -0.5905  -0.5789  -0.5726  -0.5673  -0.5544
 -0.5452  -0.5319  -0.5212  -0.5082  -0.4848  -0.4691  -0.4604  -0.4449
 -0.3531  -0.3449  -0.3220  -0.2672

          Ground-State Mulliken Net Atomic Charges

     Atom                 Charge (a.u.)
  ----------------------------------------
      1 C                    -0.072907
      2 C                    -0.326001
      3 C                    -0.058965
      4 H                     0.177402
      5 C                     0.107818
      6 S                    -0.195845
      7 C                    -0.286528
      8 H                     0.119216
      9 H                     0.103649
     10 H                     0.109985
     11 C                    -0.061654
     12 C                    -0.270319
     13 C                     0.038196
     14 H                     0.191280
     15 C                    -0.224075
     16 S                     0.003927
     17 C                    -0.271125
     18 H                     0.102450
     19 H                     0.111710
     20 H                     0.107215
     21 H                     0.199732
     22 H                     0.110177
     23 H                     0.107985
     24 H                     0.176679
  ----------------------------------------
  Sum of atomic charges =     0.000000

                    Cartesian Multipole Moments
 -----------------------------------------------------------------
    Charge (ESU x 10^10)
                -0.0000
    Dipole Moment (Debye)
         X       3.8816      Y       0.5718      Z       2.7099
       Tot       4.7684
    Quadrupole Moments (Debye-Ang)
        XX     -87.5028     XY       1.8741     YY     -78.5954
        XZ       0.5282     YZ      -0.5249     ZZ     -85.5746

 Total job time:  682.22s(wall), 679.31s(cpu)
        *  Thank you very much for using Q-Chem.  Have a nice day.  *
