 Q-Chem 5.4, Q-Chem, Inc., Pleasanton, CA (2021)
 Q-Chem 5.4.0 for Intel X86 EM64T Linux

User input:
--------------------------------------------------------------
$molecule
0 1
C	-0.763475	-3.866725	0.133897
C	0.603206	-3.703963	-0.106669
C	1.050446	-2.357056	-0.185154
H	1.283024	-4.561092	-0.226709
C	-0.000000	-1.440664	-0.000000
S	-1.521018	-2.286957	0.268206
C	2.483610	-1.978743	-0.437628
H	3.118875	-2.878678	-0.549717
H	2.903464	-1.376015	0.394664
H	2.593726	-1.375728	-1.363110
C	0.000000	0.000000	0.000000
C	0.555137	0.661535	1.099446
C	1.444710	1.721658	0.776721
H	0.318072	0.379023	2.136088
C	1.586563	1.890676	-0.612546
S	0.605781	0.721904	-1.486809
C	2.143920	2.554907	1.814609
H	1.870325	2.228851	2.836676
H	1.880882	3.629742	1.726239
H	3.248098	2.482476	1.726228
H	2.196723	2.617806	-1.161575
H	-0.946698	-4.392713	1.077442
H	-1.258274	-4.392347	-0.690363
H	-0.187427	-1.440391	-1.063612
$end

$rem
JOBTYPE		SP
EXCHANGE	HF
CORRELATION	pRIMP2
BASIS		cc-pvtz
METHOD		rimp2
AUX_BASIS	rimp2-cc-pvtz
SOLVENT_METHOD	PCM
PURECART	11111
SYMMETRY	false
MEM_TOTAL	110000
SCF_CONVERGENCE = 6
THRESH=10
$end

$solvent
dielectric 4.90
$end
--------------------------------------------------------------

             Standard Nuclear Orientation (Angstroms)
    I     Atom           X                Y                Z
 ----------------------------------------------------------------
    1      C      -0.7634750000    -3.8667250000     0.1338970000
    2      C       0.6032060000    -3.7039630000    -0.1066690000
    3      C       1.0504460000    -2.3570560000    -0.1851540000
    4      H       1.2830240000    -4.5610920000    -0.2267090000
    5      C       0.0000000000    -1.4406640000     0.0000000000
    6      S      -1.5210180000    -2.2869570000     0.2682060000
    7      C       2.4836100000    -1.9787430000    -0.4376280000
    8      H       3.1188750000    -2.8786780000    -0.5497170000
    9      H       2.9034640000    -1.3760150000     0.3946640000
   10      H       2.5937260000    -1.3757280000    -1.3631100000
   11      C       0.0000000000     0.0000000000     0.0000000000
   12      C       0.5551370000     0.6615350000     1.0994460000
   13      C       1.4447100000     1.7216580000     0.7767210000
   14      H       0.3180720000     0.3790230000     2.1360880000
   15      C       1.5865630000     1.8906760000    -0.6125460000
   16      S       0.6057810000     0.7219040000    -1.4868090000
   17      C       2.1439200000     2.5549070000     1.8146090000
   18      H       1.8703250000     2.2288510000     2.8366760000
   19      H       1.8808820000     3.6297420000     1.7262390000
   20      H       3.2480980000     2.4824760000     1.7262280000
   21      H       2.1967230000     2.6178060000    -1.1615750000
   22      H      -0.9466980000    -4.3927130000     1.0774420000
   23      H      -1.2582740000    -4.3923470000    -0.6903630000
   24      H      -0.1874270000    -1.4403910000    -1.0636120000
 ----------------------------------------------------------------

   10   -1180.7253374254      6.91e-07  Convergence criterion met
 Total energy in the final basis set =    -1180.7253374254
        RIMP2         total energy =     -1182.7393433052 a.u.

                    Orbital Energies (a.u.)
 --------------------------------------------------------------

 Alpha MOs
 -- Occupied --
-91.9848 -91.9358 -11.2771 -11.2650 -11.2598 -11.2524 -11.2512 -11.2485
-11.2374 -11.2301 -11.2284 -11.2161  -8.9850  -8.9406  -6.6659  -6.6652
 -6.6647  -6.6220  -6.6209  -6.6197  -1.1997  -1.1542  -1.0588  -1.0226
 -1.0039  -0.9645  -0.9114  -0.9009  -0.8071  -0.7652  -0.7416  -0.7070
 -0.6509  -0.6299  -0.6127  -0.5869  -0.5776  -0.5737  -0.5706  -0.5535
 -0.5425  -0.5264  -0.5196  -0.5033  -0.4901  -0.4693  -0.4613  -0.4426
 -0.3521  -0.3438  -0.3148  -0.2760

          Ground-State Mulliken Net Atomic Charges

     Atom                 Charge (a.u.)
  ----------------------------------------
      1 C                    -0.072712
      2 C                    -0.333396
      3 C                    -0.024130
      4 H                     0.174877
      5 C                     0.074417
      6 S                    -0.197544
      7 C                    -0.283678
      8 H                     0.118326
      9 H                     0.108947
     10 H                     0.107950
     11 C                    -0.098787
     12 C                    -0.211737
     13 C                     0.024270
     14 H                     0.187261
     15 C                    -0.212945
     16 S                     0.010922
     17 C                    -0.269521
     18 H                     0.103513
     19 H                     0.108657
     20 H                     0.105829
     21 H                     0.200844
     22 H                     0.108942
     23 H                     0.106382
     24 H                     0.163315
  ----------------------------------------
  Sum of atomic charges =     0.000000

                    Cartesian Multipole Moments
 -----------------------------------------------------------------
    Charge (ESU x 10^10)
                -0.0000
    Dipole Moment (Debye)
         X       3.9995      Y       1.0909      Z       0.3740
       Tot       4.1624
    Quadrupole Moments (Debye-Ang)
        XX     -87.2017     XY       2.3255     YY     -79.1117
        XZ       0.7472     YZ       2.6842     ZZ     -85.6310

 Total job time:  684.67s(wall), 681.26s(cpu)
        *  Thank you very much for using Q-Chem.  Have a nice day.  *
