 Q-Chem 5.4, Q-Chem, Inc., Pleasanton, CA (2021)
 Q-Chem 5.4.0 for Intel X86 EM64T Linux

User input:
--------------------------------------------------------------
$molecule
0 1
C	-0.763475	-3.866725	0.133897
C	0.603206	-3.703963	-0.106669
C	1.050446	-2.357056	-0.185154
H	1.283024	-4.561092	-0.226709
C	-0.000000	-1.440664	-0.000000
S	-1.521018	-2.286957	0.268206
C	2.483610	-1.978743	-0.437628
H	3.118875	-2.878678	-0.549717
H	2.903464	-1.376015	0.394664
H	2.593726	-1.375728	-1.363110
C	0.000000	0.000000	0.000000
C	0.075300	0.860311	1.099446
C	0.195935	2.238951	0.776721
H	0.043151	0.492916	2.136088
C	0.215188	2.458766	-0.612546
S	0.082160	0.938811	-1.486809
C	0.290762	3.322559	1.814609
H	0.253664	2.898542	2.836676
H	-0.541206	4.052140	1.726239
H	1.236797	3.896558	1.726228
H	0.297938	3.404370	-1.161575
H	-0.946698	-4.392713	1.077442
H	-1.258274	-4.392347	-0.690363
H	0.187427	-1.440937	1.063612
$end

$rem
JOBTYPE		SP
EXCHANGE	HF
CORRELATION	pRIMP2
BASIS		cc-pvtz
METHOD		rimp2
AUX_BASIS	rimp2-cc-pvtz
SOLVENT_METHOD	PCM
PURECART	11111
SYMMETRY	false
MEM_TOTAL	110000
SCF_CONVERGENCE = 6
THRESH=10
$end

$solvent
dielectric 4.90
$end
--------------------------------------------------------------

             Standard Nuclear Orientation (Angstroms)
    I     Atom           X                Y                Z
 ----------------------------------------------------------------
    1      C      -0.7634750000    -3.8667250000     0.1338970000
    2      C       0.6032060000    -3.7039630000    -0.1066690000
    3      C       1.0504460000    -2.3570560000    -0.1851540000
    4      H       1.2830240000    -4.5610920000    -0.2267090000
    5      C       0.0000000000    -1.4406640000     0.0000000000
    6      S      -1.5210180000    -2.2869570000     0.2682060000
    7      C       2.4836100000    -1.9787430000    -0.4376280000
    8      H       3.1188750000    -2.8786780000    -0.5497170000
    9      H       2.9034640000    -1.3760150000     0.3946640000
   10      H       2.5937260000    -1.3757280000    -1.3631100000
   11      C       0.0000000000     0.0000000000     0.0000000000
   12      C       0.0753000000     0.8603110000     1.0994460000
   13      C       0.1959350000     2.2389510000     0.7767210000
   14      H       0.0431510000     0.4929160000     2.1360880000
   15      C       0.2151880000     2.4587660000    -0.6125460000
   16      S       0.0821600000     0.9388110000    -1.4868090000
   17      C       0.2907620000     3.3225590000     1.8146090000
   18      H       0.2536640000     2.8985420000     2.8366760000
   19      H      -0.5412060000     4.0521400000     1.7262390000
   20      H       1.2367970000     3.8965580000     1.7262280000
   21      H       0.2979380000     3.4043700000    -1.1615750000
   22      H      -0.9466980000    -4.3927130000     1.0774420000
   23      H      -1.2582740000    -4.3923470000    -0.6903630000
   24      H       0.1874270000    -1.4409370000     1.0636120000
 ----------------------------------------------------------------

   10   -1180.7637769425      5.00e-07  Convergence criterion met
 Total energy in the final basis set =    -1180.7637769425
        RIMP2         total energy =     -1182.7683704010 a.u.

                    Orbital Energies (a.u.)
 --------------------------------------------------------------

 Alpha MOs
 -- Occupied --
-91.9807 -91.9408 -11.2817 -11.2647 -11.2630 -11.2555 -11.2509 -11.2437
-11.2407 -11.2314 -11.2294 -11.2196  -8.9806  -8.9455  -6.6615  -6.6610
 -6.6604  -6.6269  -6.6259  -6.6246  -1.1981  -1.1537  -1.0582  -1.0255
 -1.0066  -0.9596  -0.9121  -0.9012  -0.8148  -0.7628  -0.7350  -0.7016
 -0.6612  -0.6410  -0.6105  -0.5887  -0.5797  -0.5720  -0.5665  -0.5507
 -0.5417  -0.5302  -0.5144  -0.5055  -0.4928  -0.4809  -0.4595  -0.4485
 -0.3557  -0.3420  -0.3127  -0.2809

          Ground-State Mulliken Net Atomic Charges

     Atom                 Charge (a.u.)
  ----------------------------------------
      1 C                    -0.079122
      2 C                    -0.327748
      3 C                    -0.016343
      4 H                     0.176686
      5 C                     0.085320
      6 S                    -0.177524
      7 C                    -0.265729
      8 H                     0.113099
      9 H                     0.102361
     10 H                     0.106382
     11 C                    -0.083192
     12 C                    -0.243524
     13 C                     0.022152
     14 H                     0.182564
     15 C                    -0.237490
     16 S                     0.006679
     17 C                    -0.271782
     18 H                     0.102169
     19 H                     0.108763
     20 H                     0.107961
     21 H                     0.196769
     22 H                     0.111170
     23 H                     0.112818
     24 H                     0.167563
  ----------------------------------------
  Sum of atomic charges =     0.000000

                    Cartesian Multipole Moments
 -----------------------------------------------------------------
    Charge (ESU x 10^10)
                -0.0000
    Dipole Moment (Debye)
         X       2.6988      Y       0.5673      Z       1.8620
       Tot       3.3275
    Quadrupole Moments (Debye-Ang)
        XX     -91.7969     XY      -2.9444     YY     -73.7239
        XZ      -0.2253     YZ       0.4207     ZZ     -85.9398

 Total job time:  651.37s(wall), 647.31s(cpu)
        *  Thank you very much for using Q-Chem.  Have a nice day.  *
