 Q-Chem 5.4, Q-Chem, Inc., Pleasanton, CA (2021)
 Q-Chem 5.4.0 for Intel X86 EM64T Linux

User input:
--------------------------------------------------------------
$molecule
0 1
C	-0.265779	-3.866725	0.728138
C	0.209225	-3.703963	-0.575726
C	0.364875	-2.357056	-1.002290
H	0.445176	-4.561092	-1.224486
C	0.000000	-1.440664	0.000000
S	-0.528236	-2.286957	1.451343
C	0.862808	-1.978743	-2.369683
H	1.083368	-2.878678	-2.975883
H	1.793522	-1.376015	-2.317142
H	0.116375	-1.375728	-2.927787
C	0.000000	0.000000	0.000000
C	0.747916	0.431772	1.099446
C	1.946425	1.123709	0.776721
H	0.428523	0.247378	2.136088
C	2.137531	1.234018	-0.612546
S	0.816154	0.471179	-1.486809
C	2.888455	1.667564	1.814609
H	2.519842	1.454746	2.836676
H	3.008896	2.767543	1.726239
H	3.901271	1.221850	1.726228
H	2.959587	1.708609	-1.161575
H	0.459743	-4.392713	1.358585
H	-1.227009	-4.392347	0.744515
H	-1.014829	-1.440391	-0.369490
$end

$rem
JOBTYPE		SP
EXCHANGE	HF
CORRELATION	pRIMP2
BASIS		cc-pvtz
METHOD		rimp2
AUX_BASIS	rimp2-cc-pvtz
SOLVENT_METHOD	PCM
PURECART	11111
SYMMETRY	false
MEM_TOTAL	110000
SCF_CONVERGENCE = 6
THRESH=10
$end

$solvent
dielectric 4.90
$end
--------------------------------------------------------------

             Standard Nuclear Orientation (Angstroms)
    I     Atom           X                Y                Z
 ----------------------------------------------------------------
    1      C      -0.2657790000    -3.8667250000     0.7281380000
    2      C       0.2092250000    -3.7039630000    -0.5757260000
    3      C       0.3648750000    -2.3570560000    -1.0022900000
    4      H       0.4451760000    -4.5610920000    -1.2244860000
    5      C       0.0000000000    -1.4406640000     0.0000000000
    6      S      -0.5282360000    -2.2869570000     1.4513430000
    7      C       0.8628080000    -1.9787430000    -2.3696830000
    8      H       1.0833680000    -2.8786780000    -2.9758830000
    9      H       1.7935220000    -1.3760150000    -2.3171420000
   10      H       0.1163750000    -1.3757280000    -2.9277870000
   11      C       0.0000000000     0.0000000000     0.0000000000
   12      C       0.7479160000     0.4317720000     1.0994460000
   13      C       1.9464250000     1.1237090000     0.7767210000
   14      H       0.4285230000     0.2473780000     2.1360880000
   15      C       2.1375310000     1.2340180000    -0.6125460000
   16      S       0.8161540000     0.4711790000    -1.4868090000
   17      C       2.8884550000     1.6675640000     1.8146090000
   18      H       2.5198420000     1.4547460000     2.8366760000
   19      H       3.0088960000     2.7675430000     1.7262390000
   20      H       3.9012710000     1.2218500000     1.7262280000
   21      H       2.9595870000     1.7086090000    -1.1615750000
   22      H       0.4597430000    -4.3927130000     1.3585850000
   23      H      -1.2270090000    -4.3923470000     0.7445150000
   24      H      -1.0148290000    -1.4403910000    -0.3694900000
 ----------------------------------------------------------------

   11   -1180.6422654481      5.98e-07  Convergence criterion met
 Total energy in the final basis set =    -1180.6422654481
        RIMP2         total energy =     -1182.6759079650 a.u.

                    Orbital Energies (a.u.)
 --------------------------------------------------------------

 Alpha MOs
 -- Occupied --
-91.9741 -91.9377 -11.2837 -11.2617 -11.2536 -11.2499 -11.2487 -11.2474
-11.2379 -11.2288 -11.2264 -11.2109  -8.9767  -8.9424  -6.6571  -6.6564
 -6.6560  -6.6238  -6.6228  -6.6216  -1.2051  -1.1523  -1.0594  -1.0288
 -1.0052  -0.9574  -0.9126  -0.9052  -0.8032  -0.7741  -0.7249  -0.7085
 -0.6496  -0.6406  -0.6144  -0.5959  -0.5851  -0.5735  -0.5679  -0.5465
 -0.5399  -0.5327  -0.5209  -0.5184  -0.4871  -0.4524  -0.4408  -0.4340
 -0.3525  -0.3290  -0.3256  -0.2550

          Ground-State Mulliken Net Atomic Charges

     Atom                 Charge (a.u.)
  ----------------------------------------
      1 C                    -0.068149
      2 C                    -0.352375
      3 C                    -0.051266
      4 H                     0.175417
      5 C                     0.056429
      6 S                    -0.214349
      7 C                    -0.257956
      8 H                     0.105617
      9 H                     0.112954
     10 H                     0.104105
     11 C                    -0.163521
     12 C                    -0.110783
     13 C                    -0.022924
     14 H                     0.191821
     15 C                    -0.190800
     16 S                     0.030735
     17 C                    -0.268587
     18 H                     0.103294
     19 H                     0.106507
     20 H                     0.104240
     21 H                     0.201221
     22 H                     0.109010
     23 H                     0.107297
     24 H                     0.192064
  ----------------------------------------
  Sum of atomic charges =     0.000000

                    Cartesian Multipole Moments
 -----------------------------------------------------------------
    Charge (ESU x 10^10)
                -0.0000
    Dipole Moment (Debye)
         X       2.8271      Y       0.5936      Z      -1.3470
       Tot       3.1873
    Quadrupole Moments (Debye-Ang)
        XX     -82.4083     XY       5.1838     YY     -84.7171
        XZ      -0.2166     YZ       4.1132     ZZ     -84.9595

 Total job time:  818.25s(wall), 813.87s(cpu)
        *  Thank you very much for using Q-Chem.  Have a nice day.  *
