 Q-Chem 5.4, Q-Chem, Inc., Pleasanton, CA (2021)
 Q-Chem 5.4.0 for Intel X86 EM64T Linux

User input:
--------------------------------------------------------------
$molecule
0 1
C	-0.264439	-3.866725	-0.728625
C	0.209794	-3.703963	0.575519
C	0.364749	-2.357056	1.002336
H	0.446060	-4.561092	1.224165
C	-0.000000	-1.440664	-0.000000
S	-0.528253	-2.286957	-1.451336
C	0.862253	-1.978743	2.369885
H	1.082953	-2.878678	2.976034
H	0.115513	-1.376015	2.927887
H	1.792797	-1.375728	2.317620
C	0.000000	0.000000	0.000000
C	0.365003	0.782674	1.099446
C	0.949885	2.036912	0.776721
H	0.209135	0.448431	2.136088
C	1.043159	2.236886	-0.612546
S	0.398297	0.854094	-1.486809
C	1.409609	3.022738	1.814609
H	1.229726	2.636980	2.836676
H	0.877346	3.992870	1.726239
H	2.494910	3.238558	1.726228
H	1.444334	3.097160	-1.161575
H	-1.225465	-4.392713	-0.745219
H	0.461378	-4.392347	-1.359038
H	-1.014907	-1.440937	0.369273
$end

$rem
JOBTYPE		SP
EXCHANGE	HF
CORRELATION	pRIMP2
BASIS		cc-pvtz
METHOD		rimp2
AUX_BASIS	rimp2-cc-pvtz
SOLVENT_METHOD	PCM
PURECART	11111
SYMMETRY	false
MEM_TOTAL	110000
SCF_CONVERGENCE = 6
THRESH=10
$end

$solvent
dielectric 4.90
$end
--------------------------------------------------------------

             Standard Nuclear Orientation (Angstroms)
    I     Atom           X                Y                Z
 ----------------------------------------------------------------
    1      C      -0.2644390000    -3.8667250000    -0.7286250000
    2      C       0.2097940000    -3.7039630000     0.5755190000
    3      C       0.3647490000    -2.3570560000     1.0023360000
    4      H       0.4460600000    -4.5610920000     1.2241650000
    5      C       0.0000000000    -1.4406640000     0.0000000000
    6      S      -0.5282530000    -2.2869570000    -1.4513360000
    7      C       0.8622530000    -1.9787430000     2.3698850000
    8      H       1.0829530000    -2.8786780000     2.9760340000
    9      H       0.1155130000    -1.3760150000     2.9278870000
   10      H       1.7927970000    -1.3757280000     2.3176200000
   11      C       0.0000000000     0.0000000000     0.0000000000
   12      C       0.3650030000     0.7826740000     1.0994460000
   13      C       0.9498850000     2.0369120000     0.7767210000
   14      H       0.2091350000     0.4484310000     2.1360880000
   15      C       1.0431590000     2.2368860000    -0.6125460000
   16      S       0.3982970000     0.8540940000    -1.4868090000
   17      C       1.4096090000     3.0227380000     1.8146090000
   18      H       1.2297260000     2.6369800000     2.8366760000
   19      H       0.8773460000     3.9928700000     1.7262390000
   20      H       2.4949100000     3.2385580000     1.7262280000
   21      H       1.4443340000     3.0971600000    -1.1615750000
   22      H      -1.2254650000    -4.3927130000    -0.7452190000
   23      H       0.4613780000    -4.3923470000    -1.3590380000
   24      H      -1.0149070000    -1.4409370000     0.3692730000
 ----------------------------------------------------------------

   10   -1180.7404966717      5.47e-07  Convergence criterion met
 Total energy in the final basis set =    -1180.7404966717
        RIMP2         total energy =     -1182.7518591906 a.u.

                    Orbital Energies (a.u.)
 --------------------------------------------------------------

 Alpha MOs
 -- Occupied --
-91.9815 -91.9444 -11.2828 -11.2657 -11.2591 -11.2578 -11.2503 -11.2432
-11.2347 -11.2334 -11.2286 -11.2211  -8.9813  -8.9491  -6.6623  -6.6616
 -6.6611  -6.6305  -6.6295  -6.6282  -1.2014  -1.1525  -1.0594  -1.0311
 -1.0011  -0.9622  -0.9151  -0.8999  -0.8167  -0.7622  -0.7275  -0.7088
 -0.6557  -0.6471  -0.6103  -0.5934  -0.5881  -0.5696  -0.5595  -0.5521
 -0.5428  -0.5351  -0.5233  -0.5045  -0.4820  -0.4760  -0.4670  -0.4433
 -0.3593  -0.3425  -0.3230  -0.2634

          Ground-State Mulliken Net Atomic Charges

     Atom                 Charge (a.u.)
  ----------------------------------------
      1 C                    -0.075136
      2 C                    -0.320932
      3 C                    -0.063490
      4 H                     0.178818
      5 C                     0.124543
      6 S                    -0.181000
      7 C                    -0.299147
      8 H                     0.121485
      9 H                     0.099584
     10 H                     0.117406
     11 C                    -0.034289
     12 C                    -0.316606
     13 C                     0.059009
     14 H                     0.191773
     15 C                    -0.271062
     16 S                     0.018044
     17 C                    -0.271565
     18 H                     0.100974
     19 H                     0.108753
     20 H                     0.108181
     21 H                     0.195324
     22 H                     0.111766
     23 H                     0.112757
     24 H                     0.184809
  ----------------------------------------
  Sum of atomic charges =     0.000000

                    Cartesian Multipole Moments
 -----------------------------------------------------------------
    Charge (ESU x 10^10)
                -0.0000
    Dipole Moment (Debye)
         X       0.7211      Y      -0.1471      Z       4.0223
       Tot       4.0891
    Quadrupole Moments (Debye-Ang)
        XX     -89.6869     XY       4.1227     YY     -75.2103
        XZ       0.8288     YZ      -2.7086     ZZ     -85.9392

 Total job time:  674.17s(wall), 669.71s(cpu)
        *  Thank you very much for using Q-Chem.  Have a nice day.  *
