 Q-Chem 5.4, Q-Chem, Inc., Pleasanton, CA (2021)
 Q-Chem 5.4.0 for Intel X86 EM64T Linux

User input:
--------------------------------------------------------------
$molecule
0 1
C	0.135301	-3.866725	-0.763228
C	-0.106073	-3.703963	0.603311
C	-0.185286	-2.357056	1.050423
H	-0.225783	-4.561092	1.283188
C	-0.000000	-1.440664	-0.000000
S	0.268187	-2.286957	-1.521021
C	-0.438209	-1.978743	2.483507
H	-0.550153	-2.878678	3.118798
H	-1.363906	-1.376015	2.593381
H	0.393798	-1.375728	2.903516
C	0.000000	0.000000	0.000000
C	0.365003	0.782674	1.099446
C	0.949885	2.036912	0.776721
H	0.209135	0.448431	2.136088
C	1.043159	2.236886	-0.612546
S	0.398297	0.854094	-1.486809
C	1.409609	3.022738	1.814609
H	1.229726	2.636980	2.836676
H	0.877346	3.992870	1.726239
H	2.494910	3.238558	1.726228
H	1.444334	3.097160	-1.161575
H	-0.688674	-4.392713	-1.258111
H	1.079084	-4.392347	-0.946272
H	1.063572	-1.440391	0.187654
$end

$rem
JOBTYPE		SP
EXCHANGE	HF
CORRELATION	pRIMP2
BASIS		cc-pvtz
METHOD		rimp2
AUX_BASIS	rimp2-cc-pvtz
SOLVENT_METHOD	PCM
PURECART	11111
SYMMETRY	false
MEM_TOTAL	110000
SCF_CONVERGENCE = 6
THRESH=10
$end

$solvent
dielectric 4.90
$end
--------------------------------------------------------------

             Standard Nuclear Orientation (Angstroms)
    I     Atom           X                Y                Z
 ----------------------------------------------------------------
    1      C       0.1353010000    -3.8667250000    -0.7632280000
    2      C      -0.1060730000    -3.7039630000     0.6033110000
    3      C      -0.1852860000    -2.3570560000     1.0504230000
    4      H      -0.2257830000    -4.5610920000     1.2831880000
    5      C       0.0000000000    -1.4406640000     0.0000000000
    6      S       0.2681870000    -2.2869570000    -1.5210210000
    7      C      -0.4382090000    -1.9787430000     2.4835070000
    8      H      -0.5501530000    -2.8786780000     3.1187980000
    9      H      -1.3639060000    -1.3760150000     2.5933810000
   10      H       0.3937980000    -1.3757280000     2.9035160000
   11      C       0.0000000000     0.0000000000     0.0000000000
   12      C       0.3650030000     0.7826740000     1.0994460000
   13      C       0.9498850000     2.0369120000     0.7767210000
   14      H       0.2091350000     0.4484310000     2.1360880000
   15      C       1.0431590000     2.2368860000    -0.6125460000
   16      S       0.3982970000     0.8540940000    -1.4868090000
   17      C       1.4096090000     3.0227380000     1.8146090000
   18      H       1.2297260000     2.6369800000     2.8366760000
   19      H       0.8773460000     3.9928700000     1.7262390000
   20      H       2.4949100000     3.2385580000     1.7262280000
   21      H       1.4443340000     3.0971600000    -1.1615750000
   22      H      -0.6886740000    -4.3927130000    -1.2581110000
   23      H       1.0790840000    -4.3923470000    -0.9462720000
   24      H       1.0635720000    -1.4403910000     0.1876540000
 ----------------------------------------------------------------

   10   -1180.7454867076      4.97e-07  Convergence criterion met
 Total energy in the final basis set =    -1180.7454867076
        RIMP2         total energy =     -1182.7548098803 a.u.

                    Orbital Energies (a.u.)
 --------------------------------------------------------------

 Alpha MOs
 -- Occupied --
-91.9840 -91.9444 -11.2884 -11.2653 -11.2616 -11.2550 -11.2503 -11.2434
-11.2341 -11.2283 -11.2282 -11.2237  -8.9838  -8.9491  -6.6647  -6.6641
 -6.6635  -6.6305  -6.6295  -6.6282  -1.2039  -1.1523  -1.0605  -1.0325
 -1.0004  -0.9615  -0.9157  -0.8997  -0.8172  -0.7628  -0.7266  -0.7054
 -0.6605  -0.6487  -0.6109  -0.5935  -0.5860  -0.5695  -0.5590  -0.5537
 -0.5441  -0.5359  -0.5232  -0.5027  -0.4847  -0.4814  -0.4691  -0.4405
 -0.3614  -0.3440  -0.3234  -0.2623

          Ground-State Mulliken Net Atomic Charges

     Atom                 Charge (a.u.)
  ----------------------------------------
      1 C                    -0.078726
      2 C                    -0.301603
      3 C                    -0.071473
      4 H                     0.177911
      5 C                     0.111551
      6 S                    -0.183580
      7 C                    -0.299815
      8 H                     0.121031
      9 H                     0.115852
     10 H                     0.100676
     11 C                    -0.009924
     12 C                    -0.305765
     13 C                     0.049746
     14 H                     0.184082
     15 C                    -0.284698
     16 S                     0.011711
     17 C                    -0.271036
     18 H                     0.100689
     19 H                     0.108785
     20 H                     0.107803
     21 H                     0.197360
     22 H                     0.111828
     23 H                     0.112411
     24 H                     0.195185
  ----------------------------------------
  Sum of atomic charges =     0.000000

                    Cartesian Multipole Moments
 -----------------------------------------------------------------
    Charge (ESU x 10^10)
                -0.0000
    Dipole Moment (Debye)
         X       1.0518      Y      -0.5271      Z       3.8478
       Tot       4.0236
    Quadrupole Moments (Debye-Ang)
        XX     -89.8026     XY       2.9211     YY     -74.8321
        XZ       0.1713     YZ      -2.8167     ZZ     -85.7867

 Total job time:  665.12s(wall), 661.43s(cpu)
        *  Thank you very much for using Q-Chem.  Have a nice day.  *
