 Q-Chem 5.4, Q-Chem, Inc., Pleasanton, CA (2021)
 Q-Chem 5.4.0 for Intel X86 EM64T Linux

User input:
--------------------------------------------------------------
$molecule
0 1
C	0.763228	-3.866725	0.135301
C	-0.603311	-3.703963	-0.106073
C	-1.050423	-2.357056	-0.185286
H	-1.283188	-4.561092	-0.225783
C	-0.000000	-1.440664	-0.000000
S	1.521021	-2.286957	0.268187
C	-2.483507	-1.978743	-0.438209
H	-3.118798	-2.878678	-0.550153
H	-2.593381	-1.376015	-1.363906
H	-2.903516	-1.375728	0.393798
C	0.000000	0.000000	0.000000
C	0.075300	0.860311	1.099446
C	0.195935	2.238951	0.776721
H	0.043151	0.492916	2.136088
C	0.215188	2.458766	-0.612546
S	0.082160	0.938811	-1.486809
C	0.290762	3.322559	1.814609
H	0.253664	2.898542	2.836676
H	-0.541206	4.052140	1.726239
H	1.236797	3.896558	1.726228
H	0.297938	3.404370	-1.161575
H	1.258111	-4.392713	-0.688674
H	0.946272	-4.392347	1.079084
H	-0.187654	-1.440391	1.063572
$end

$rem
JOBTYPE		SP
EXCHANGE	HF
CORRELATION	pRIMP2
BASIS		cc-pvtz
METHOD		rimp2
AUX_BASIS	rimp2-cc-pvtz
SOLVENT_METHOD	PCM
PURECART	11111
SYMMETRY	false
MEM_TOTAL	110000
SCF_CONVERGENCE = 6
THRESH=10
$end

$solvent
dielectric 4.90
$end
--------------------------------------------------------------

             Standard Nuclear Orientation (Angstroms)
    I     Atom           X                Y                Z
 ----------------------------------------------------------------
    1      C       0.7632280000    -3.8667250000     0.1353010000
    2      C      -0.6033110000    -3.7039630000    -0.1060730000
    3      C      -1.0504230000    -2.3570560000    -0.1852860000
    4      H      -1.2831880000    -4.5610920000    -0.2257830000
    5      C       0.0000000000    -1.4406640000     0.0000000000
    6      S       1.5210210000    -2.2869570000     0.2681870000
    7      C      -2.4835070000    -1.9787430000    -0.4382090000
    8      H      -3.1187980000    -2.8786780000    -0.5501530000
    9      H      -2.5933810000    -1.3760150000    -1.3639060000
   10      H      -2.9035160000    -1.3757280000     0.3937980000
   11      C       0.0000000000     0.0000000000     0.0000000000
   12      C       0.0753000000     0.8603110000     1.0994460000
   13      C       0.1959350000     2.2389510000     0.7767210000
   14      H       0.0431510000     0.4929160000     2.1360880000
   15      C       0.2151880000     2.4587660000    -0.6125460000
   16      S       0.0821600000     0.9388110000    -1.4868090000
   17      C       0.2907620000     3.3225590000     1.8146090000
   18      H       0.2536640000     2.8985420000     2.8366760000
   19      H      -0.5412060000     4.0521400000     1.7262390000
   20      H       1.2367970000     3.8965580000     1.7262280000
   21      H       0.2979380000     3.4043700000    -1.1615750000
   22      H       1.2581110000    -4.3927130000    -0.6886740000
   23      H       0.9462720000    -4.3923470000     1.0790840000
   24      H      -0.1876540000    -1.4403910000     1.0635720000
 ----------------------------------------------------------------

   10   -1180.7645782832      5.01e-07  Convergence criterion met
 Total energy in the final basis set =    -1180.7645782832
        RIMP2         total energy =     -1182.7688931963 a.u.

                    Orbital Energies (a.u.)
 --------------------------------------------------------------

 Alpha MOs
 -- Occupied --
-91.9803 -91.9415 -11.2815 -11.2647 -11.2625 -11.2556 -11.2507 -11.2438
-11.2408 -11.2315 -11.2292 -11.2194  -8.9802  -8.9462  -6.6612  -6.6606
 -6.6601  -6.6275  -6.6265  -6.6252  -1.1980  -1.1537  -1.0581  -1.0258
 -1.0063  -0.9593  -0.9123  -0.9010  -0.8152  -0.7627  -0.7348  -0.7011
 -0.6612  -0.6411  -0.6105  -0.5887  -0.5800  -0.5718  -0.5664  -0.5505
 -0.5416  -0.5307  -0.5130  -0.5060  -0.4924  -0.4816  -0.4594  -0.4489
 -0.3562  -0.3413  -0.3124  -0.2815

          Ground-State Mulliken Net Atomic Charges

     Atom                 Charge (a.u.)
  ----------------------------------------
      1 C                    -0.077747
      2 C                    -0.326589
      3 C                    -0.025407
      4 H                     0.176652
      5 C                     0.093737
      6 S                    -0.175127
      7 C                    -0.265792
      8 H                     0.112214
      9 H                     0.105864
     10 H                     0.101978
     11 C                    -0.083140
     12 C                    -0.244914
     13 C                     0.022719
     14 H                     0.182586
     15 C                    -0.236785
     16 S                     0.005504
     17 C                    -0.271556
     18 H                     0.102137
     19 H                     0.107820
     20 H                     0.108835
     21 H                     0.196836
     22 H                     0.112878
     23 H                     0.110883
     24 H                     0.166411
  ----------------------------------------
  Sum of atomic charges =     0.000000

                    Cartesian Multipole Moments
 -----------------------------------------------------------------
    Charge (ESU x 10^10)
                -0.0000
    Dipole Moment (Debye)
         X      -2.3562      Y       0.5501      Z       1.8722
       Tot       3.0593
    Quadrupole Moments (Debye-Ang)
        XX     -91.7372     XY       4.7606     YY     -73.6699
        XZ       0.4373     YZ       0.4037     ZZ     -85.9592

 Total job time:  647.72s(wall), 644.41s(cpu)
        *  Thank you very much for using Q-Chem.  Have a nice day.  *
