 Q-Chem 5.4, Q-Chem, Inc., Pleasanton, CA (2021)
 Q-Chem 5.4.0 for Intel X86 EM64T Linux

User input:
--------------------------------------------------------------
$molecule
0 1
C	0.671636	-3.866725	-0.386946
C	-0.530345	-3.703963	0.306544
C	-0.923770	-2.357056	0.533261
H	-1.128109	-4.561092	0.651857
C	0.000000	-1.440664	0.000000
S	1.337557	-2.286957	-0.772250
C	-2.184153	-1.978743	1.260680
H	-2.742769	-2.878678	1.583283
H	-2.863347	-1.376015	0.622180
H	-1.971094	-1.375728	2.168011
C	0.000000	0.000000	0.000000
C	0.747916	0.431772	1.099446
C	1.946425	1.123709	0.776721
H	0.428523	0.247378	2.136088
C	2.137531	1.234018	-0.612546
S	0.816154	0.471179	-1.486809
C	2.888455	1.667564	1.814609
H	2.519842	1.454746	2.836676
H	3.008896	2.767543	1.726239
H	3.901271	1.221850	1.726228
H	2.959587	1.708609	-1.161575
H	0.521098	-4.392713	-1.336254
H	1.418509	-4.392347	0.218374
H	-0.539900	-1.440937	-0.935365
$end

$rem
JOBTYPE		SP
EXCHANGE	HF
CORRELATION	pRIMP2
BASIS		cc-pvtz
METHOD		rimp2
AUX_BASIS	rimp2-cc-pvtz
SOLVENT_METHOD	PCM
PURECART	11111
SYMMETRY	false
MEM_TOTAL	110000
SCF_CONVERGENCE = 6
THRESH=10
$end

$solvent
dielectric 4.90
$end
--------------------------------------------------------------

             Standard Nuclear Orientation (Angstroms)
    I     Atom           X                Y                Z
 ----------------------------------------------------------------
    1      C       0.6716360000    -3.8667250000    -0.3869460000
    2      C      -0.5303450000    -3.7039630000     0.3065440000
    3      C      -0.9237700000    -2.3570560000     0.5332610000
    4      H      -1.1281090000    -4.5610920000     0.6518570000
    5      C       0.0000000000    -1.4406640000     0.0000000000
    6      S       1.3375570000    -2.2869570000    -0.7722500000
    7      C      -2.1841530000    -1.9787430000     1.2606800000
    8      H      -2.7427690000    -2.8786780000     1.5832830000
    9      H      -2.8633470000    -1.3760150000     0.6221800000
   10      H      -1.9710940000    -1.3757280000     2.1680110000
   11      C       0.0000000000     0.0000000000     0.0000000000
   12      C       0.7479160000     0.4317720000     1.0994460000
   13      C       1.9464250000     1.1237090000     0.7767210000
   14      H       0.4285230000     0.2473780000     2.1360880000
   15      C       2.1375310000     1.2340180000    -0.6125460000
   16      S       0.8161540000     0.4711790000    -1.4868090000
   17      C       2.8884550000     1.6675640000     1.8146090000
   18      H       2.5198420000     1.4547460000     2.8366760000
   19      H       3.0088960000     2.7675430000     1.7262390000
   20      H       3.9012710000     1.2218500000     1.7262280000
   21      H       2.9595870000     1.7086090000    -1.1615750000
   22      H       0.5210980000    -4.3927130000    -1.3362540000
   23      H       1.4185090000    -4.3923470000     0.2183740000
   24      H      -0.5399000000    -1.4409370000    -0.9353650000
 ----------------------------------------------------------------

   10   -1180.6807547721      7.92e-07  Convergence criterion met
 Total energy in the final basis set =    -1180.6807547721
        RIMP2         total energy =     -1182.7025500131 a.u.

                    Orbital Energies (a.u.)
 --------------------------------------------------------------

 Alpha MOs
 -- Occupied --
-91.9815 -91.9302 -11.2907 -11.2592 -11.2556 -11.2519 -11.2479 -11.2452
-11.2329 -11.2300 -11.2289 -11.2107  -8.9825  -8.9355  -6.6633  -6.6625
 -6.6623  -6.6168  -6.6157  -6.6144  -1.2044  -1.1528  -1.0577  -1.0262
 -0.9988  -0.9656  -0.9068  -0.9017  -0.8100  -0.7541  -0.7510  -0.7038
 -0.6485  -0.6271  -0.6150  -0.5888  -0.5804  -0.5725  -0.5643  -0.5506
 -0.5409  -0.5334  -0.5075  -0.5046  -0.4879  -0.4730  -0.4544  -0.4370
 -0.3580  -0.3270  -0.3189  -0.2663

          Ground-State Mulliken Net Atomic Charges

     Atom                 Charge (a.u.)
  ----------------------------------------
      1 C                    -0.091815
      2 C                    -0.327437
      3 C                    -0.076394
      4 H                     0.171697
      5 C                     0.066447
      6 S                    -0.183474
      7 C                    -0.273806
      8 H                     0.111576
      9 H                     0.103190
     10 H                     0.102356
     11 C                    -0.182203
     12 C                    -0.075628
     13 C                    -0.026805
     14 H                     0.196035
     15 C                    -0.161014
     16 S                     0.024696
     17 C                    -0.269680
     18 H                     0.102313
     19 H                     0.107494
     20 H                     0.106602
     21 H                     0.203256
     22 H                     0.104374
     23 H                     0.107983
     24 H                     0.160234
  ----------------------------------------
  Sum of atomic charges =     0.000000

                    Cartesian Multipole Moments
 -----------------------------------------------------------------
    Charge (ESU x 10^10)
                -0.0000
    Dipole Moment (Debye)
         X       0.5138      Y       1.1646      Z       2.0639
       Tot       2.4249
    Quadrupole Moments (Debye-Ang)
        XX     -82.5348     XY       9.6637     YY     -84.8186
        XZ       0.1179     YZ      -0.2426     ZZ     -84.5878

 Total job time:  699.40s(wall), 695.20s(cpu)
        *  Thank you very much for using Q-Chem.  Have a nice day.  *
