 Q-Chem 5.4, Q-Chem, Inc., Pleasanton, CA (2021)
 Q-Chem 5.4.0 for Intel X86 EM64T Linux

User input:
--------------------------------------------------------------
$molecule
0 1
C	-0.775127	-3.866725	-0.000713
C	0.612565	-3.703963	-0.000302
C	1.066639	-2.357056	0.000067
H	1.302900	-4.561092	-0.000470
C	0.000000	-1.440664	0.000000
S	-1.544483	-2.286957	0.000009
C	2.521872	-1.978743	0.000295
H	3.166949	-2.878678	0.000221
H	2.790821	-1.376015	0.892850
H	2.791023	-1.375728	-0.892005
C	0.000000	0.000000	0.000000
C	0.747916	0.431772	1.099446
C	1.946425	1.123709	0.776721
H	0.428523	0.247378	2.136088
C	2.137531	1.234018	-0.612546
S	0.816154	0.471179	-1.486809
C	2.888455	1.667564	1.814609
H	2.519842	1.454746	2.836676
H	3.008896	2.767543	1.726239
H	3.901271	1.221850	1.726228
H	2.959587	1.708609	-1.161575
H	-1.119411	-4.392713	0.896681
H	-1.119277	-4.392347	-0.898372
H	-0.000115	-1.440937	1.080000
$end

$rem
JOBTYPE		SP
EXCHANGE	HF
CORRELATION	pRIMP2
BASIS		cc-pvtz
METHOD		rimp2
AUX_BASIS	rimp2-cc-pvtz
SOLVENT_METHOD	PCM
PURECART	11111
SYMMETRY	false
MEM_TOTAL	110000
SCF_CONVERGENCE = 6
THRESH=10
$end

$solvent
dielectric 4.90
$end
--------------------------------------------------------------

             Standard Nuclear Orientation (Angstroms)
    I     Atom           X                Y                Z
 ----------------------------------------------------------------
    1      C      -0.7751270000    -3.8667250000    -0.0007130000
    2      C       0.6125650000    -3.7039630000    -0.0003020000
    3      C       1.0666390000    -2.3570560000     0.0000670000
    4      H       1.3029000000    -4.5610920000    -0.0004700000
    5      C       0.0000000000    -1.4406640000     0.0000000000
    6      S      -1.5444830000    -2.2869570000     0.0000090000
    7      C       2.5218720000    -1.9787430000     0.0002950000
    8      H       3.1669490000    -2.8786780000     0.0002210000
    9      H       2.7908210000    -1.3760150000     0.8928500000
   10      H       2.7910230000    -1.3757280000    -0.8920050000
   11      C       0.0000000000     0.0000000000     0.0000000000
   12      C       0.7479160000     0.4317720000     1.0994460000
   13      C       1.9464250000     1.1237090000     0.7767210000
   14      H       0.4285230000     0.2473780000     2.1360880000
   15      C       2.1375310000     1.2340180000    -0.6125460000
   16      S       0.8161540000     0.4711790000    -1.4868090000
   17      C       2.8884550000     1.6675640000     1.8146090000
   18      H       2.5198420000     1.4547460000     2.8366760000
   19      H       3.0088960000     2.7675430000     1.7262390000
   20      H       3.9012710000     1.2218500000     1.7262280000
   21      H       2.9595870000     1.7086090000    -1.1615750000
   22      H      -1.1194110000    -4.3927130000     0.8966810000
   23      H      -1.1192770000    -4.3923470000    -0.8983720000
   24      H      -0.0001150000    -1.4409370000     1.0800000000
 ----------------------------------------------------------------

   10   -1180.6799915353      9.66e-07  Convergence criterion met
 Total energy in the final basis set =    -1180.6799915353
        RIMP2         total energy =     -1182.7065326699 a.u.

                    Orbital Energies (a.u.)
 --------------------------------------------------------------

 Alpha MOs
 -- Occupied --
-91.9788 -91.9292 -11.2889 -11.2657 -11.2574 -11.2532 -11.2518 -11.2484
-11.2345 -11.2327 -11.2259 -11.2147  -8.9797  -8.9343  -6.6605  -6.6597
 -6.6594  -6.6157  -6.6146  -6.6134  -1.2078  -1.1536  -1.0599  -1.0219
 -1.0103  -0.9607  -0.9108  -0.9014  -0.8072  -0.7608  -0.7485  -0.7016
 -0.6563  -0.6362  -0.6142  -0.5937  -0.5847  -0.5750  -0.5640  -0.5514
 -0.5418  -0.5255  -0.5230  -0.5031  -0.4911  -0.4636  -0.4468  -0.4359
 -0.3497  -0.3440  -0.3173  -0.2700

          Ground-State Mulliken Net Atomic Charges

     Atom                 Charge (a.u.)
  ----------------------------------------
      1 C                    -0.073405
      2 C                    -0.327293
      3 C                    -0.026510
      4 H                     0.173925
      5 C                     0.095097
      6 S                    -0.225668
      7 C                    -0.318280
      8 H                     0.125137
      9 H                     0.109940
     10 H                     0.118813
     11 C                    -0.154826
     12 C                    -0.156881
     13 C                     0.005261
     14 H                     0.191801
     15 C                    -0.172541
     16 S                     0.007764
     17 C                    -0.271385
     18 H                     0.104924
     19 H                     0.117508
     20 H                     0.105107
     21 H                     0.201917
     22 H                     0.104260
     23 H                     0.106227
     24 H                     0.159108
  ----------------------------------------
  Sum of atomic charges =     0.000000

                    Cartesian Multipole Moments
 -----------------------------------------------------------------
    Charge (ESU x 10^10)
                -0.0000
    Dipole Moment (Debye)
         X       5.4190      Y       0.9962      Z       2.5330
       Tot       6.0641
    Quadrupole Moments (Debye-Ang)
        XX     -82.7344     XY       1.5023     YY     -84.1754
        XZ       0.2547     YZ      -0.6747     ZZ     -85.2948

 Total job time:  760.91s(wall), 755.42s(cpu)
        *  Thank you very much for using Q-Chem.  Have a nice day.  *
