 Q-Chem 5.4, Q-Chem, Inc., Pleasanton, CA (2021)
 Q-Chem 5.4.0 for Intel X86 EM64T Linux

User input:
--------------------------------------------------------------
$molecule
0 1
C	-0.265779	-3.866725	0.728138
C	0.209225	-3.703963	-0.575726
C	0.364875	-2.357056	-1.002290
H	0.445176	-4.561092	-1.224486
C	-0.000000	-1.440664	-0.000000
S	-0.528236	-2.286957	1.451343
C	0.862808	-1.978743	-2.369683
H	1.083368	-2.878678	-2.975883
H	1.793522	-1.376015	-2.317142
H	0.116375	-1.375728	-2.927787
C	0.000000	0.000000	0.000000
C	0.149995	0.850475	1.099446
C	0.390327	2.213354	0.776721
H	0.085947	0.487279	2.136088
C	0.428665	2.430655	-0.612546
S	0.163670	0.928078	-1.486809
C	0.579235	3.284574	1.814609
H	0.505323	2.865404	2.836676
H	-0.185980	4.083890	1.726239
H	1.571698	3.773937	1.726228
H	0.593515	3.365448	-1.161575
H	0.459743	-4.392713	1.358585
H	-1.227009	-4.392347	0.744515
H	-1.014829	-1.440391	-0.369490
$end

$rem
JOBTYPE		SP
EXCHANGE	HF
CORRELATION	pRIMP2
BASIS		cc-pvtz
METHOD		rimp2
AUX_BASIS	rimp2-cc-pvtz
SOLVENT_METHOD	PCM
PURECART	11111
SYMMETRY	false
MEM_TOTAL	110000
SCF_CONVERGENCE = 6
THRESH=10
$end

$solvent
dielectric 4.90
$end
--------------------------------------------------------------

   10   -1180.7548896682      5.00e-07  Convergence criterion met
 Total energy in the final basis set =    -1180.7548896682
        RIMP2         total energy =     -1182.7613715841 a.u.

                    Orbital Energies (a.u.)
 --------------------------------------------------------------

 Alpha MOs
 -- Occupied --
-91.9814 -91.9460 -11.2880 -11.2662 -11.2607 -11.2556 -11.2496 -11.2438
-11.2324 -11.2319 -11.2274 -11.2225  -8.9816  -8.9505  -6.6625  -6.6620
 -6.6613  -6.6319  -6.6309  -6.6296  -1.2019  -1.1524  -1.0608  -1.0278
 -1.0063  -0.9575  -0.9160  -0.9015  -0.8143  -0.7719  -0.7202  -0.7054
 -0.6569  -0.6464  -0.6107  -0.5936  -0.5812  -0.5717  -0.5684  -0.5531
 -0.5420  -0.5336  -0.5157  -0.5101  -0.4887  -0.4829  -0.4585  -0.4453
 -0.3583  -0.3418  -0.3256  -0.2659

          Ground-State Mulliken Net Atomic Charges

     Atom                 Charge (a.u.)
  ----------------------------------------
      1 C                    -0.073054
      2 C                    -0.320609
      3 C                    -0.057546
      4 H                     0.178989
      5 C                     0.155343
      6 S                    -0.183656
      7 C                    -0.300416
      8 H                     0.119113
      9 H                     0.120366
     10 H                     0.104635
     11 C                    -0.065898
     12 C                    -0.276425
     13 C                     0.031042
     14 H                     0.182086
     15 C                    -0.264551
     16 S                    -0.000566
     17 C                    -0.272488
     18 H                     0.102653
     19 H                     0.108223
     20 H                     0.108048
     21 H                     0.197046
     22 H                     0.112585
     23 H                     0.113097
     24 H                     0.181983
  ----------------------------------------
  Sum of atomic charges =     0.000000

                    Cartesian Multipole Moments
 -----------------------------------------------------------------
    Charge (ESU x 10^10)
                -0.0000
    Dipole Moment (Debye)
         X       0.3100      Y      -0.2965      Z      -1.2317
       Tot       1.3042
    Quadrupole Moments (Debye-Ang)
        XX     -91.2508     XY       1.9239     YY     -73.4466
        XZ      -0.2812     YZ       4.9195     ZZ     -85.8093

 Total job time:  656.38s(wall), 653.02s(cpu)
        *  Thank you very much for using Q-Chem.  Have a nice day.  *
 Q-Chem 5.4, Q-Chem, Inc., Pleasanton, CA (2021)
 Q-Chem 5.4.0 for Intel X86 EM64T Linux

User input:
--------------------------------------------------------------
$molecule
0 1
C	-0.265779	-3.866725	0.728138
C	0.209225	-3.703963	-0.575726
C	0.364875	-2.357056	-1.002290
H	0.445176	-4.561092	-1.224486
C	-0.000000	-1.440664	-0.000000
S	-0.528236	-2.286957	1.451343
C	0.862808	-1.978743	-2.369683
H	1.083368	-2.878678	-2.975883
H	1.793522	-1.376015	-2.317142
H	0.116375	-1.375728	-2.927787
C	0.000000	0.000000	0.000000
C	0.149995	0.850475	1.099446
C	0.390327	2.213354	0.776721
H	0.085947	0.487279	2.136088
C	0.428665	2.430655	-0.612546
S	0.163670	0.928078	-1.486809
C	0.579235	3.284574	1.814609
H	0.505323	2.865404	2.836676
H	-0.185980	4.083890	1.726239
H	1.571698	3.773937	1.726228
H	0.593515	3.365448	-1.161575
H	0.459743	-4.392713	1.358585
H	-1.227009	-4.392347	0.744515
H	-1.014829	-1.440391	-0.369490
$end

$rem
JOBTYPE		SP
EXCHANGE	HF
CORRELATION	pRIMP2
BASIS		cc-pvtz
METHOD		rimp2
AUX_BASIS	rimp2-cc-pvtz
SOLVENT_METHOD	PCM
PURECART	11111
SYMMETRY	false
MEM_TOTAL	110000
SCF_CONVERGENCE = 6
THRESH=10
$end

$solvent
dielectric 4.90
$end
--------------------------------------------------------------

             Standard Nuclear Orientation (Angstroms)
    I     Atom           X                Y                Z
 ----------------------------------------------------------------
    1      C      -0.2657790000    -3.8667250000     0.7281380000
    2      C       0.2092250000    -3.7039630000    -0.5757260000
    3      C       0.3648750000    -2.3570560000    -1.0022900000
    4      H       0.4451760000    -4.5610920000    -1.2244860000
    5      C       0.0000000000    -1.4406640000     0.0000000000
    6      S      -0.5282360000    -2.2869570000     1.4513430000
    7      C       0.8628080000    -1.9787430000    -2.3696830000
    8      H       1.0833680000    -2.8786780000    -2.9758830000
    9      H       1.7935220000    -1.3760150000    -2.3171420000
   10      H       0.1163750000    -1.3757280000    -2.9277870000
   11      C       0.0000000000     0.0000000000     0.0000000000
   12      C       0.1499950000     0.8504750000     1.0994460000
   13      C       0.3903270000     2.2133540000     0.7767210000
   14      H       0.0859470000     0.4872790000     2.1360880000
   15      C       0.4286650000     2.4306550000    -0.6125460000
   16      S       0.1636700000     0.9280780000    -1.4868090000
   17      C       0.5792350000     3.2845740000     1.8146090000
   18      H       0.5053230000     2.8654040000     2.8366760000
   19      H      -0.1859800000     4.0838900000     1.7262390000
   20      H       1.5716980000     3.7739370000     1.7262280000
   21      H       0.5935150000     3.3654480000    -1.1615750000
   22      H       0.4597430000    -4.3927130000     1.3585850000
   23      H      -1.2270090000    -4.3923470000     0.7445150000
   24      H      -1.0148290000    -1.4403910000    -0.3694900000
 ----------------------------------------------------------------
