 Q-Chem 5.4, Q-Chem, Inc., Pleasanton, CA (2021)
 Q-Chem 5.4.0 for Intel X86 EM64T Linux

User input:
--------------------------------------------------------------
$molecule
0 1
C	0.775127	-3.866725	0.000713
C	-0.612565	-3.703963	0.000302
C	-1.066639	-2.357056	-0.000067
H	-1.302900	-4.561092	0.000470
C	0.000000	-1.440664	0.000000
S	1.544483	-2.286957	-0.000009
C	-2.521872	-1.978743	-0.000295
H	-3.166949	-2.878678	-0.000221
H	-2.790821	-1.376015	-0.892850
H	-2.791023	-1.375728	0.892005
C	0.000000	0.000000	0.000000
C	0.223548	0.834165	1.099446
C	0.581748	2.170912	0.776721
H	0.128089	0.477934	2.136088
C	0.638880	2.384045	-0.612546
S	0.243934	0.910282	-1.486809
C	0.863301	3.221592	1.814609
H	0.753137	2.810458	2.836676
H	0.170663	4.084559	1.726239
H	1.894637	3.622593	1.726228
H	0.884575	3.300913	-1.161575
H	1.119411	-4.392713	-0.896681
H	1.119277	-4.392347	0.898372
H	-0.000115	-1.440391	1.080000
$end

$rem
JOBTYPE		SP
EXCHANGE	HF
CORRELATION	pRIMP2
BASIS		cc-pvtz
METHOD		rimp2
AUX_BASIS	rimp2-cc-pvtz
SOLVENT_METHOD	PCM
PURECART	11111
SYMMETRY	false
MEM_TOTAL	110000
SCF_CONVERGENCE = 6
THRESH=10
$end

$solvent
dielectric 4.90
$end
--------------------------------------------------------------

             Standard Nuclear Orientation (Angstroms)
    I     Atom           X                Y                Z
 ----------------------------------------------------------------
    1      C       0.7751270000    -3.8667250000     0.0007130000
    2      C      -0.6125650000    -3.7039630000     0.0003020000
    3      C      -1.0666390000    -2.3570560000    -0.0000670000
    4      H      -1.3029000000    -4.5610920000     0.0004700000
    5      C       0.0000000000    -1.4406640000     0.0000000000
    6      S       1.5444830000    -2.2869570000    -0.0000090000
    7      C      -2.5218720000    -1.9787430000    -0.0002950000
    8      H      -3.1669490000    -2.8786780000    -0.0002210000
    9      H      -2.7908210000    -1.3760150000    -0.8928500000
   10      H      -2.7910230000    -1.3757280000     0.8920050000
   11      C       0.0000000000     0.0000000000     0.0000000000
   12      C       0.2235480000     0.8341650000     1.0994460000
   13      C       0.5817480000     2.1709120000     0.7767210000
   14      H       0.1280890000     0.4779340000     2.1360880000
   15      C       0.6388800000     2.3840450000    -0.6125460000
   16      S       0.2439340000     0.9102820000    -1.4868090000
   17      C       0.8633010000     3.2215920000     1.8146090000
   18      H       0.7531370000     2.8104580000     2.8366760000
   19      H       0.1706630000     4.0845590000     1.7262390000
   20      H       1.8946370000     3.6225930000     1.7262280000
   21      H       0.8845750000     3.3009130000    -1.1615750000
   22      H       1.1194110000    -4.3927130000    -0.8966810000
   23      H       1.1192770000    -4.3923470000     0.8983720000
   24      H      -0.0001150000    -1.4403910000     1.0800000000
 ----------------------------------------------------------------

   10   -1180.7611082655      5.13e-07  Convergence criterion met
 Total energy in the final basis set =    -1180.7611082655
        RIMP2         total energy =     -1182.7661790759 a.u.

                    Orbital Energies (a.u.)
 --------------------------------------------------------------

 Alpha MOs
 -- Occupied --
-91.9797 -91.9416 -11.2796 -11.2661 -11.2615 -11.2548 -11.2506 -11.2448
-11.2406 -11.2315 -11.2293 -11.2183  -8.9798  -8.9462  -6.6607  -6.6601
 -6.6596  -6.6275  -6.6265  -6.6252  -1.1980  -1.1536  -1.0578  -1.0261
 -1.0056  -0.9595  -0.9118  -0.9010  -0.8152  -0.7610  -0.7360  -0.7010
 -0.6608  -0.6407  -0.6104  -0.5889  -0.5806  -0.5712  -0.5658  -0.5502
 -0.5414  -0.5305  -0.5114  -0.5065  -0.4927  -0.4802  -0.4598  -0.4485
 -0.3567  -0.3399  -0.3116  -0.2824

          Ground-State Mulliken Net Atomic Charges

     Atom                 Charge (a.u.)
  ----------------------------------------
      1 C                    -0.074647
      2 C                    -0.326345
      3 C                    -0.032040
      4 H                     0.175861
      5 C                     0.081651
      6 S                    -0.170949
      7 C                    -0.267901
      8 H                     0.112176
      9 H                     0.106672
     10 H                     0.100792
     11 C                    -0.070216
     12 C                    -0.249180
     13 C                     0.028248
     14 H                     0.181165
     15 C                    -0.235223
     16 S                     0.005689
     17 C                    -0.271194
     18 H                     0.101961
     19 H                     0.107730
     20 H                     0.108816
     21 H                     0.196922
     22 H                     0.111856
     23 H                     0.110000
     24 H                     0.168157
  ----------------------------------------
  Sum of atomic charges =     0.000000

                    Cartesian Multipole Moments
 -----------------------------------------------------------------
    Charge (ESU x 10^10)
                -0.0000
    Dipole Moment (Debye)
         X      -1.8984      Y       0.6074      Z       2.3048
       Tot       3.0471
    Quadrupole Moments (Debye-Ang)
        XX     -90.9580     XY       6.2584     YY     -74.4316
        XZ       0.6163     YZ      -0.2992     ZZ     -86.0382

 Total job time:  651.84s(wall), 645.43s(cpu)
        *  Thank you very much for using Q-Chem.  Have a nice day.  *
