 Q-Chem 5.4, Q-Chem, Inc., Pleasanton, CA (2021)
 Q-Chem 5.4.0 for Intel X86 EM64T Linux

User input:
--------------------------------------------------------------
$molecule
0 1
C	0.763228	-3.866725	0.135301
C	-0.603311	-3.703963	-0.106073
C	-1.050423	-2.357056	-0.185286
H	-1.283188	-4.561092	-0.225783
C	0.000000	-1.440664	0.000000
S	1.521021	-2.286957	0.268187
C	-2.483507	-1.978743	-0.438209
H	-3.118798	-2.878678	-0.550153
H	-2.593381	-1.376015	-1.363906
H	-2.903516	-1.375728	0.393798
C	0.000000	0.000000	0.000000
C	0.223548	0.834165	1.099446
C	0.581748	2.170912	0.776721
H	0.128089	0.477934	2.136088
C	0.638880	2.384045	-0.612546
S	0.243934	0.910282	-1.486809
C	0.863301	3.221592	1.814609
H	0.753137	2.810458	2.836676
H	0.170663	4.084559	1.726239
H	1.894637	3.622593	1.726228
H	0.884575	3.300913	-1.161575
H	1.258111	-4.392713	-0.688674
H	0.946272	-4.392347	1.079084
H	-0.187654	-1.440391	1.063572
$end

$rem
JOBTYPE		SP
EXCHANGE	HF
CORRELATION	pRIMP2
BASIS		cc-pvtz
METHOD		rimp2
AUX_BASIS	rimp2-cc-pvtz
SOLVENT_METHOD	PCM
PURECART	11111
SYMMETRY	false
MEM_TOTAL	110000
SCF_CONVERGENCE = 6
THRESH=10
$end

$solvent
dielectric 4.90
$end
--------------------------------------------------------------

             Standard Nuclear Orientation (Angstroms)
    I     Atom           X                Y                Z
 ----------------------------------------------------------------
    1      C       0.7632280000    -3.8667250000     0.1353010000
    2      C      -0.6033110000    -3.7039630000    -0.1060730000
    3      C      -1.0504230000    -2.3570560000    -0.1852860000
    4      H      -1.2831880000    -4.5610920000    -0.2257830000
    5      C       0.0000000000    -1.4406640000     0.0000000000
    6      S       1.5210210000    -2.2869570000     0.2681870000
    7      C      -2.4835070000    -1.9787430000    -0.4382090000
    8      H      -3.1187980000    -2.8786780000    -0.5501530000
    9      H      -2.5933810000    -1.3760150000    -1.3639060000
   10      H      -2.9035160000    -1.3757280000     0.3937980000
   11      C       0.0000000000     0.0000000000     0.0000000000
   12      C       0.2235480000     0.8341650000     1.0994460000
   13      C       0.5817480000     2.1709120000     0.7767210000
   14      H       0.1280890000     0.4779340000     2.1360880000
   15      C       0.6388800000     2.3840450000    -0.6125460000
   16      S       0.2439340000     0.9102820000    -1.4868090000
   17      C       0.8633010000     3.2215920000     1.8146090000
   18      H       0.7531370000     2.8104580000     2.8366760000
   19      H       0.1706630000     4.0845590000     1.7262390000
   20      H       1.8946370000     3.6225930000     1.7262280000
   21      H       0.8845750000     3.3009130000    -1.1615750000
   22      H       1.2581110000    -4.3927130000    -0.6886740000
   23      H       0.9462720000    -4.3923470000     1.0790840000
   24      H      -0.1876540000    -1.4403910000     1.0635720000
 ----------------------------------------------------------------

   10   -1180.7613642534      5.13e-07  Convergence criterion met
 Total energy in the final basis set =    -1180.7613642534
        RIMP2         total energy =     -1182.7665136554 a.u.

                    Orbital Energies (a.u.)
 --------------------------------------------------------------

 Alpha MOs
 -- Occupied --
-91.9797 -91.9415 -11.2797 -11.2659 -11.2616 -11.2550 -11.2508 -11.2447
-11.2406 -11.2315 -11.2292 -11.2187  -8.9797  -8.9462  -6.6607  -6.6601
 -6.6595  -6.6275  -6.6265  -6.6252  -1.1980  -1.1537  -1.0579  -1.0259
 -1.0061  -0.9591  -0.9121  -0.9010  -0.8150  -0.7623  -0.7351  -0.7005
 -0.6608  -0.6407  -0.6105  -0.5886  -0.5804  -0.5717  -0.5661  -0.5503
 -0.5413  -0.5311  -0.5118  -0.5065  -0.4922  -0.4803  -0.4593  -0.4488
 -0.3565  -0.3405  -0.3122  -0.2815

          Ground-State Mulliken Net Atomic Charges

     Atom                 Charge (a.u.)
  ----------------------------------------
      1 C                    -0.075899
      2 C                    -0.324820
      3 C                    -0.032499
      4 H                     0.176063
      5 C                     0.086521
      6 S                    -0.172004
      7 C                    -0.267948
      8 H                     0.111951
      9 H                     0.105802
     10 H                     0.102088
     11 C                    -0.067904
     12 C                    -0.256299
     13 C                     0.030902
     14 H                     0.182093
     15 C                    -0.236077
     16 S                     0.004490
     17 C                    -0.270910
     18 H                     0.102111
     19 H                     0.107678
     20 H                     0.108844
     21 H                     0.196988
     22 H                     0.112256
     23 H                     0.109912
     24 H                     0.166661
  ----------------------------------------
  Sum of atomic charges =     0.000000

                    Cartesian Multipole Moments
 -----------------------------------------------------------------
    Charge (ESU x 10^10)
                -0.0000
    Dipole Moment (Debye)
         X      -2.0029      Y       0.5862      Z       1.8902
       Tot       2.8157
    Quadrupole Moments (Debye-Ang)
        XX     -91.0560     XY       6.4990     YY     -74.3670
        XZ       0.6373     YZ       0.3512     ZZ     -85.9396

 Total job time:  649.63s(wall), 643.28s(cpu)
        *  Thank you very much for using Q-Chem.  Have a nice day.  *
