 Q-Chem 5.4, Q-Chem, Inc., Pleasanton, CA (2021)
 Q-Chem 5.4.0 for Intel X86 EM64T Linux

User input:
--------------------------------------------------------------
$molecule
0 1
C	-0.386946	-3.866725	-0.671636
C	0.306544	-3.703963	0.530345
C	0.533261	-2.357056	0.923770
H	0.651857	-4.561092	1.128109
C	-0.000000	-1.440664	-0.000000
S	-0.772250	-2.286957	-1.337557
C	1.260680	-1.978743	2.184153
H	1.583283	-2.878678	2.742769
H	0.622180	-1.376015	2.863347
H	2.168011	-1.375728	1.971094
C	0.000000	0.000000	0.000000
C	0.149995	0.850475	1.099446
C	0.390327	2.213354	0.776721
H	0.085947	0.487279	2.136088
C	0.428665	2.430655	-0.612546
S	0.163670	0.928078	-1.486809
C	0.579235	3.284574	1.814609
H	0.505323	2.865404	2.836676
H	-0.185980	4.083890	1.726239
H	1.571698	3.773937	1.726228
H	0.593515	3.365448	-1.161575
H	-1.336254	-4.392713	-0.521098
H	0.218374	-4.392347	-1.418509
H	-0.935365	-1.440937	0.539900
$end

$rem
JOBTYPE		SP
EXCHANGE	HF
CORRELATION	pRIMP2
BASIS		cc-pvtz
METHOD		rimp2
AUX_BASIS	rimp2-cc-pvtz
SOLVENT_METHOD	PCM
PURECART	11111
SYMMETRY	false
MEM_TOTAL	110000
SCF_CONVERGENCE = 6
THRESH=10
$end

$solvent
dielectric 4.90
$end
--------------------------------------------------------------

             Standard Nuclear Orientation (Angstroms)
    I     Atom           X                Y                Z
 ----------------------------------------------------------------
    1      C      -0.3869460000    -3.8667250000    -0.6716360000
    2      C       0.3065440000    -3.7039630000     0.5303450000
    3      C       0.5332610000    -2.3570560000     0.9237700000
    4      H       0.6518570000    -4.5610920000     1.1281090000
    5      C       0.0000000000    -1.4406640000     0.0000000000
    6      S      -0.7722500000    -2.2869570000    -1.3375570000
    7      C       1.2606800000    -1.9787430000     2.1841530000
    8      H       1.5832830000    -2.8786780000     2.7427690000
    9      H       0.6221800000    -1.3760150000     2.8633470000
   10      H       2.1680110000    -1.3757280000     1.9710940000
   11      C       0.0000000000     0.0000000000     0.0000000000
   12      C       0.1499950000     0.8504750000     1.0994460000
   13      C       0.3903270000     2.2133540000     0.7767210000
   14      H       0.0859470000     0.4872790000     2.1360880000
   15      C       0.4286650000     2.4306550000    -0.6125460000
   16      S       0.1636700000     0.9280780000    -1.4868090000
   17      C       0.5792350000     3.2845740000     1.8146090000
   18      H       0.5053230000     2.8654040000     2.8366760000
   19      H      -0.1859800000     4.0838900000     1.7262390000
   20      H       1.5716980000     3.7739370000     1.7262280000
   21      H       0.5935150000     3.3654480000    -1.1615750000
   22      H      -1.3362540000    -4.3927130000    -0.5210980000
   23      H       0.2183740000    -4.3923470000    -1.4185090000
   24      H      -0.9353650000    -1.4409370000     0.5399000000
 ----------------------------------------------------------------

   10   -1180.7559715941      5.04e-07  Convergence criterion met
 Total energy in the final basis set =    -1180.7559715941
        RIMP2         total energy =     -1182.7628821984 a.u.

                    Orbital Energies (a.u.)
 --------------------------------------------------------------

 Alpha MOs
 -- Occupied --
-91.9828 -91.9451 -11.2873 -11.2659 -11.2596 -11.2563 -11.2505 -11.2436
-11.2333 -11.2333 -11.2286 -11.2224  -8.9824  -8.9497  -6.6634  -6.6628
 -6.6622  -6.6311  -6.6301  -6.6289  -1.2013  -1.1526  -1.0598  -1.0304
 -1.0023  -0.9615  -0.9147  -0.9000  -0.8178  -0.7625  -0.7273  -0.7072
 -0.6590  -0.6470  -0.6107  -0.5926  -0.5863  -0.5698  -0.5597  -0.5537
 -0.5428  -0.5341  -0.5208  -0.5045  -0.4832  -0.4829  -0.4667  -0.4452
 -0.3586  -0.3432  -0.3226  -0.2671

          Ground-State Mulliken Net Atomic Charges

     Atom                 Charge (a.u.)
  ----------------------------------------
      1 C                    -0.075309
      2 C                    -0.317430
      3 C                    -0.064149
      4 H                     0.178220
      5 C                     0.136539
      6 S                    -0.177843
      7 C                    -0.289873
      8 H                     0.120135
      9 H                     0.098474
     10 H                     0.117307
     11 C                    -0.059567
     12 C                    -0.288080
     13 C                     0.039979
     14 H                     0.189423
     15 C                    -0.271293
     16 S                     0.014138
     17 C                    -0.273315
     18 H                     0.100921
     19 H                     0.108663
     20 H                     0.108588
     21 H                     0.195327
     22 H                     0.112671
     23 H                     0.112392
     24 H                     0.184082
  ----------------------------------------
  Sum of atomic charges =     0.000000

                    Cartesian Multipole Moments
 -----------------------------------------------------------------
    Charge (ESU x 10^10)
                -0.0000
    Dipole Moment (Debye)
         X       0.7293      Y      -0.2130      Z       3.9195
       Tot       3.9924
    Quadrupole Moments (Debye-Ang)
        XX     -91.1196     XY       1.3306     YY     -73.4591
        XZ       0.5003     YZ      -2.5848     ZZ     -86.1347

 Total job time:  662.54s(wall), 657.76s(cpu)
        *  Thank you very much for using Q-Chem.  Have a nice day.  *
