 Q-Chem 5.4, Q-Chem, Inc., Pleasanton, CA (2021)
 Q-Chem 5.4.0 for Intel X86 EM64T Linux

User input:
--------------------------------------------------------------
$molecule
0 1
C	0.671636	-3.866725	-0.386946
C	-0.530345	-3.703963	0.306544
C	-0.923770	-2.357056	0.533261
H	-1.128109	-4.561092	0.651857
C	-0.000000	-1.440664	-0.000000
S	1.337557	-2.286957	-0.772250
C	-2.184153	-1.978743	1.260680
H	-2.742769	-2.878678	1.583283
H	-2.863347	-1.376015	0.622180
H	-1.971094	-1.375728	2.168011
C	0.000000	0.000000	0.000000
C	0.075300	0.860311	1.099446
C	0.195935	2.238951	0.776721
H	0.043151	0.492916	2.136088
C	0.215188	2.458766	-0.612546
S	0.082160	0.938811	-1.486809
C	0.290762	3.322559	1.814609
H	0.253664	2.898542	2.836676
H	-0.541206	4.052140	1.726239
H	1.236797	3.896558	1.726228
H	0.297938	3.404370	-1.161575
H	0.521098	-4.392713	-1.336254
H	1.418509	-4.392347	0.218374
H	0.539900	-1.440391	0.935365
$end

$rem
JOBTYPE		SP
EXCHANGE	HF
CORRELATION	pRIMP2
BASIS		cc-pvtz
METHOD		rimp2
AUX_BASIS	rimp2-cc-pvtz
SOLVENT_METHOD	PCM
PURECART	11111
SYMMETRY	false
MEM_TOTAL	110000
SCF_CONVERGENCE = 6
THRESH=10
$end

$solvent
dielectric 4.90
$end
--------------------------------------------------------------

             Standard Nuclear Orientation (Angstroms)
    I     Atom           X                Y                Z
 ----------------------------------------------------------------
    1      C       0.6716360000    -3.8667250000    -0.3869460000
    2      C      -0.5303450000    -3.7039630000     0.3065440000
    3      C      -0.9237700000    -2.3570560000     0.5332610000
    4      H      -1.1281090000    -4.5610920000     0.6518570000
    5      C       0.0000000000    -1.4406640000     0.0000000000
    6      S       1.3375570000    -2.2869570000    -0.7722500000
    7      C      -2.1841530000    -1.9787430000     1.2606800000
    8      H      -2.7427690000    -2.8786780000     1.5832830000
    9      H      -2.8633470000    -1.3760150000     0.6221800000
   10      H      -1.9710940000    -1.3757280000     2.1680110000
   11      C       0.0000000000     0.0000000000     0.0000000000
   12      C       0.0753000000     0.8603110000     1.0994460000
   13      C       0.1959350000     2.2389510000     0.7767210000
   14      H       0.0431510000     0.4929160000     2.1360880000
   15      C       0.2151880000     2.4587660000    -0.6125460000
   16      S       0.0821600000     0.9388110000    -1.4868090000
   17      C       0.2907620000     3.3225590000     1.8146090000
   18      H       0.2536640000     2.8985420000     2.8366760000
   19      H      -0.5412060000     4.0521400000     1.7262390000
   20      H       1.2367970000     3.8965580000     1.7262280000
   21      H       0.2979380000     3.4043700000    -1.1615750000
   22      H       0.5210980000    -4.3927130000    -1.3362540000
   23      H       1.4185090000    -4.3923470000     0.2183740000
   24      H       0.5399000000    -1.4403910000     0.9353650000
 ----------------------------------------------------------------

   10   -1180.7623854433      5.01e-07  Convergence criterion met
 Total energy in the final basis set =    -1180.7623854433
        RIMP2         total energy =     -1182.7671815338 a.u.

                    Orbital Energies (a.u.)
 --------------------------------------------------------------

 Alpha MOs
 -- Occupied --
-91.9814 -91.9432 -11.2840 -11.2634 -11.2615 -11.2566 -11.2507 -11.2415
-11.2400 -11.2322 -11.2291 -11.2197  -8.9813  -8.9477  -6.6622  -6.6616
 -6.6611  -6.6291  -6.6281  -6.6268  -1.1990  -1.1532  -1.0585  -1.0277
 -1.0040  -0.9608  -0.9123  -0.9008  -0.8166  -0.7603  -0.7328  -0.7039
 -0.6612  -0.6429  -0.6104  -0.5898  -0.5823  -0.5705  -0.5634  -0.5523
 -0.5421  -0.5309  -0.5146  -0.5060  -0.4901  -0.4819  -0.4625  -0.4475
 -0.3563  -0.3417  -0.3171  -0.2758

          Ground-State Mulliken Net Atomic Charges

     Atom                 Charge (a.u.)
  ----------------------------------------
      1 C                    -0.076314
      2 C                    -0.327268
      3 C                    -0.034865
      4 H                     0.176559
      5 C                     0.090665
      6 S                    -0.173240
      7 C                    -0.267914
      8 H                     0.114653
      9 H                     0.109901
     10 H                     0.098971
     11 C                    -0.074536
     12 C                    -0.250046
     13 C                     0.019800
     14 H                     0.185531
     15 C                    -0.244948
     16 S                     0.008006
     17 C                    -0.272701
     18 H                     0.101542
     19 H                     0.108064
     20 H                     0.108831
     21 H                     0.196256
     22 H                     0.111670
     23 H                     0.112018
     24 H                     0.179365
  ----------------------------------------
  Sum of atomic charges =     0.000000

                    Cartesian Multipole Moments
 -----------------------------------------------------------------
    Charge (ESU x 10^10)
                -0.0000
    Dipole Moment (Debye)
         X      -1.5373      Y       0.3159      Z       3.3532
       Tot       3.7023
    Quadrupole Moments (Debye-Ang)
        XX     -91.3211     XY       3.1466     YY     -73.7143
        XZ       0.1837     YZ      -1.8416     ZZ     -86.2816

 Total job time:  648.13s(wall), 643.65s(cpu)
        *  Thank you very much for using Q-Chem.  Have a nice day.  *
