 Q-Chem 5.4, Q-Chem, Inc., Pleasanton, CA (2021)
 Q-Chem 5.4.0 for Intel X86 EM64T Linux

User input:
--------------------------------------------------------------
$molecule
0 1
C	0.671636	-3.866725	-0.386946
C	-0.530345	-3.703963	0.306544
C	-0.923770	-2.357056	0.533261
H	-1.128109	-4.561092	0.651857
C	0.000000	-1.440664	0.000000
S	1.337557	-2.286957	-0.772250
C	-2.184153	-1.978743	1.260680
H	-2.742769	-2.878678	1.583283
H	-2.863347	-1.376015	0.622180
H	-1.971094	-1.375728	2.168011
C	0.000000	0.000000	0.000000
C	0.747916	0.431772	1.099446
C	1.946425	1.123709	0.776721
H	0.428523	0.247378	2.136088
C	2.137531	1.234018	-0.612546
S	0.816154	0.471179	-1.486809
C	2.888455	1.667564	1.814609
H	2.519842	1.454746	2.836676
H	3.008896	2.767543	1.726239
H	3.901271	1.221850	1.726228
H	2.959587	1.708609	-1.161575
H	0.521098	-4.392713	-1.336254
H	1.418509	-4.392347	0.218374
H	0.539900	-1.440391	0.935365
$end

$rem
JOBTYPE		SP
EXCHANGE	HF
CORRELATION	pRIMP2
BASIS		cc-pvtz
METHOD		rimp2
AUX_BASIS	rimp2-cc-pvtz
SOLVENT_METHOD	PCM
PURECART	11111
SYMMETRY	false
MEM_TOTAL	110000
SCF_CONVERGENCE = 6
THRESH=10
$end

$solvent
dielectric 4.90
$end
--------------------------------------------------------------

             Standard Nuclear Orientation (Angstroms)
    I     Atom           X                Y                Z
 ----------------------------------------------------------------
    1      C       0.6716360000    -3.8667250000    -0.3869460000
    2      C      -0.5303450000    -3.7039630000     0.3065440000
    3      C      -0.9237700000    -2.3570560000     0.5332610000
    4      H      -1.1281090000    -4.5610920000     0.6518570000
    5      C       0.0000000000    -1.4406640000     0.0000000000
    6      S       1.3375570000    -2.2869570000    -0.7722500000
    7      C      -2.1841530000    -1.9787430000     1.2606800000
    8      H      -2.7427690000    -2.8786780000     1.5832830000
    9      H      -2.8633470000    -1.3760150000     0.6221800000
   10      H      -1.9710940000    -1.3757280000     2.1680110000
   11      C       0.0000000000     0.0000000000     0.0000000000
   12      C       0.7479160000     0.4317720000     1.0994460000
   13      C       1.9464250000     1.1237090000     0.7767210000
   14      H       0.4285230000     0.2473780000     2.1360880000
   15      C       2.1375310000     1.2340180000    -0.6125460000
   16      S       0.8161540000     0.4711790000    -1.4868090000
   17      C       2.8884550000     1.6675640000     1.8146090000
   18      H       2.5198420000     1.4547460000     2.8366760000
   19      H       3.0088960000     2.7675430000     1.7262390000
   20      H       3.9012710000     1.2218500000     1.7262280000
   21      H       2.9595870000     1.7086090000    -1.1615750000
   22      H       0.5210980000    -4.3927130000    -1.3362540000
   23      H       1.4185090000    -4.3923470000     0.2183740000
   24      H       0.5399000000    -1.4403910000     0.9353650000
 ----------------------------------------------------------------

   11   -1180.6684271296      5.34e-07  Convergence criterion met
 Total energy in the final basis set =    -1180.6684271296
        RIMP2         total energy =     -1182.6939304299 a.u.

                    Orbital Energies (a.u.)
 --------------------------------------------------------------

 Alpha MOs
 -- Occupied --
-91.9816 -91.9349 -11.2876 -11.2605 -11.2528 -11.2527 -11.2507 -11.2444
-11.2331 -11.2310 -11.2289 -11.2070  -8.9822  -8.9398  -6.6629  -6.6621
 -6.6619  -6.6211  -6.6200  -6.6187  -1.2085  -1.1517  -1.0583  -1.0268
 -1.0041  -0.9596  -0.9058  -0.9037  -0.8119  -0.7550  -0.7431  -0.6981
 -0.6608  -0.6377  -0.6102  -0.5907  -0.5818  -0.5717  -0.5625  -0.5518
 -0.5378  -0.5336  -0.5095  -0.5042  -0.4918  -0.4743  -0.4517  -0.4356
 -0.3574  -0.3320  -0.3179  -0.2594

          Ground-State Mulliken Net Atomic Charges

     Atom                 Charge (a.u.)
  ----------------------------------------
      1 C                    -0.092650
      2 C                    -0.344052
      3 C                    -0.060560
      4 H                     0.170694
      5 C                     0.077005
      6 S                    -0.176137
      7 C                    -0.274851
      8 H                     0.112563
      9 H                     0.106624
     10 H                     0.098623
     11 C                    -0.164758
     12 C                    -0.114841
     13 C                    -0.020794
     14 H                     0.193132
     15 C                    -0.176637
     16 S                     0.032224
     17 C                    -0.268018
     18 H                     0.102123
     19 H                     0.108027
     20 H                     0.106398
     21 H                     0.202054
     22 H                     0.107784
     23 H                     0.105576
     24 H                     0.170472
  ----------------------------------------
  Sum of atomic charges =     0.000000

                    Cartesian Multipole Moments
 -----------------------------------------------------------------
    Charge (ESU x 10^10)
                -0.0000
    Dipole Moment (Debye)
         X       1.1767      Y       1.0478      Z       3.2484
       Tot       3.6104
    Quadrupole Moments (Debye-Ang)
        XX     -82.0362     XY       7.7053     YY     -85.6102
        XZ       0.5635     YZ      -2.1479     ZZ     -85.0016

 Total job time:  744.40s(wall), 741.45s(cpu)
        *  Thank you very much for using Q-Chem.  Have a nice day.  *
