 Q-Chem 5.4, Q-Chem, Inc., Pleasanton, CA (2021)
 Q-Chem 5.4.0 for Intel X86 EM64T Linux

User input:
--------------------------------------------------------------
$molecule
0 1
C	-0.497696	-3.866725	-0.594240
C	0.393981	-3.703963	0.469057
C	0.685571	-2.357056	0.817136
H	0.837848	-4.561092	0.997777
C	-0.000000	-1.440664	-0.000000
S	-0.992782	-2.286957	-1.183137
C	1.620802	-1.978743	1.932056
H	2.035506	-2.878678	2.426166
H	1.109943	-1.376015	2.711806
H	2.477350	-1.375728	1.564678
C	0.000000	0.000000	0.000000
C	0.365003	0.782674	1.099446
C	0.949885	2.036912	0.776721
H	0.209135	0.448431	2.136088
C	1.043159	2.236886	-0.612546
S	0.398297	0.854094	-1.486809
C	1.409609	3.022738	1.814609
H	1.229726	2.636980	2.836676
H	0.877346	3.992870	1.726239
H	2.494910	3.238558	1.726228
H	1.444334	3.097160	-1.161575
H	-1.406441	-4.392713	-0.281143
H	-0.031265	-4.392347	-1.434879
H	0.827402	-1.440391	-0.694122
$end

$rem
JOBTYPE		SP
EXCHANGE	HF
CORRELATION	pRIMP2
BASIS		cc-pvtz
METHOD		rimp2
AUX_BASIS	rimp2-cc-pvtz
SOLVENT_METHOD	PCM
PURECART	11111
SYMMETRY	false
MEM_TOTAL	110000
SCF_CONVERGENCE = 6
THRESH=10
$end

$solvent
dielectric 4.90
$end
--------------------------------------------------------------

             Standard Nuclear Orientation (Angstroms)
    I     Atom           X                Y                Z
 ----------------------------------------------------------------
    1      C      -0.4976960000    -3.8667250000    -0.5942400000
    2      C       0.3939810000    -3.7039630000     0.4690570000
    3      C       0.6855710000    -2.3570560000     0.8171360000
    4      H       0.8378480000    -4.5610920000     0.9977770000
    5      C       0.0000000000    -1.4406640000     0.0000000000
    6      S      -0.9927820000    -2.2869570000    -1.1831370000
    7      C       1.6208020000    -1.9787430000     1.9320560000
    8      H       2.0355060000    -2.8786780000     2.4261660000
    9      H       1.1099430000    -1.3760150000     2.7118060000
   10      H       2.4773500000    -1.3757280000     1.5646780000
   11      C       0.0000000000     0.0000000000     0.0000000000
   12      C       0.3650030000     0.7826740000     1.0994460000
   13      C       0.9498850000     2.0369120000     0.7767210000
   14      H       0.2091350000     0.4484310000     2.1360880000
   15      C       1.0431590000     2.2368860000    -0.6125460000
   16      S       0.3982970000     0.8540940000    -1.4868090000
   17      C       1.4096090000     3.0227380000     1.8146090000
   18      H       1.2297260000     2.6369800000     2.8366760000
   19      H       0.8773460000     3.9928700000     1.7262390000
   20      H       2.4949100000     3.2385580000     1.7262280000
   21      H       1.4443340000     3.0971600000    -1.1615750000
   22      H      -1.4064410000    -4.3927130000    -0.2811430000
   23      H      -0.0312650000    -4.3923470000    -1.4348790000
   24      H       0.8274020000    -1.4403910000    -0.6941220000
 ----------------------------------------------------------------

   10   -1180.7472576539      5.07e-07  Convergence criterion met
 Total energy in the final basis set =    -1180.7472576539
        RIMP2         total energy =     -1182.7552810706 a.u.

                    Orbital Energies (a.u.)
 --------------------------------------------------------------

 Alpha MOs
 -- Occupied --
-91.9811 -91.9413 -11.2819 -11.2643 -11.2630 -11.2579 -11.2508 -11.2420
-11.2375 -11.2320 -11.2291 -11.2212  -8.9814  -8.9462  -6.6624  -6.6618
 -6.6612  -6.6276  -6.6266  -6.6253  -1.2018  -1.1533  -1.0600  -1.0294
 -1.0003  -0.9638  -0.9137  -0.9003  -0.8133  -0.7616  -0.7405  -0.7044
 -0.6533  -0.6411  -0.6111  -0.5916  -0.5802  -0.5707  -0.5657  -0.5536
 -0.5459  -0.5333  -0.5203  -0.5067  -0.4856  -0.4763  -0.4632  -0.4473
 -0.3558  -0.3436  -0.3234  -0.2683

          Ground-State Mulliken Net Atomic Charges

     Atom                 Charge (a.u.)
  ----------------------------------------
      1 C                    -0.074245
      2 C                    -0.316657
      3 C                    -0.056867
      4 H                     0.178469
      5 C                     0.105708
      6 S                    -0.179772
      7 C                    -0.287338
      8 H                     0.118888
      9 H                     0.102447
     10 H                     0.110972
     11 C                    -0.027227
     12 C                    -0.317630
     13 C                     0.056430
     14 H                     0.189651
     15 C                    -0.255888
     16 S                     0.006546
     17 C                    -0.271063
     18 H                     0.101769
     19 H                     0.109591
     20 H                     0.108122
     21 H                     0.197445
     22 H                     0.112667
     23 H                     0.109775
     24 H                     0.178209
  ----------------------------------------
  Sum of atomic charges =     0.000000

                    Cartesian Multipole Moments
 -----------------------------------------------------------------
    Charge (ESU x 10^10)
                -0.0000
    Dipole Moment (Debye)
         X       2.9601      Y       0.1344      Z       2.9066
       Tot       4.1507
    Quadrupole Moments (Debye-Ang)
        XX     -90.1239     XY       0.7272     YY     -75.1812
        XZ       0.4291     YZ      -0.8271     ZZ     -85.7426

 Total job time:  661.85s(wall), 658.41s(cpu)
        *  Thank you very much for using Q-Chem.  Have a nice day.  *
