 Q-Chem 5.4, Q-Chem, Inc., Pleasanton, CA (2021)
 Q-Chem 5.4.0 for Intel X86 EM64T Linux

User input:
--------------------------------------------------------------
$molecule
0 1
C	0.775127	-3.866725	0.000713
C	-0.612565	-3.703963	0.000302
C	-1.066639	-2.357056	-0.000067
H	-1.302900	-4.561092	0.000470
C	-0.000000	-1.440664	-0.000000
S	1.544483	-2.286957	-0.000009
C	-2.521872	-1.978743	-0.000295
H	-3.166949	-2.878678	-0.000221
H	-2.790821	-1.376015	-0.892850
H	-2.791023	-1.375728	0.892005
C	0.000000	0.000000	0.000000
C	0.365003	0.782674	1.099446
C	0.949885	2.036912	0.776721
H	0.209135	0.448431	2.136088
C	1.043159	2.236886	-0.612546
S	0.398297	0.854094	-1.486809
C	1.409609	3.022738	1.814609
H	1.229726	2.636980	2.836676
H	0.877346	3.992870	1.726239
H	2.494910	3.238558	1.726228
H	1.444334	3.097160	-1.161575
H	1.119411	-4.392713	-0.896681
H	1.119277	-4.392347	0.898372
H	0.000115	-1.440937	-1.080000
$end

$rem
JOBTYPE		SP
EXCHANGE	HF
CORRELATION	pRIMP2
BASIS		cc-pvtz
METHOD		rimp2
AUX_BASIS	rimp2-cc-pvtz
SOLVENT_METHOD	PCM
PURECART	11111
SYMMETRY	false
MEM_TOTAL	110000
SCF_CONVERGENCE = 6
THRESH=10
$end

$solvent
dielectric 4.90
$end
--------------------------------------------------------------

             Standard Nuclear Orientation (Angstroms)
    I     Atom           X                Y                Z
 ----------------------------------------------------------------
    1      C       0.7751270000    -3.8667250000     0.0007130000
    2      C      -0.6125650000    -3.7039630000     0.0003020000
    3      C      -1.0666390000    -2.3570560000    -0.0000670000
    4      H      -1.3029000000    -4.5610920000     0.0004700000
    5      C       0.0000000000    -1.4406640000     0.0000000000
    6      S       1.5444830000    -2.2869570000    -0.0000090000
    7      C      -2.5218720000    -1.9787430000    -0.0002950000
    8      H      -3.1669490000    -2.8786780000    -0.0002210000
    9      H      -2.7908210000    -1.3760150000    -0.8928500000
   10      H      -2.7910230000    -1.3757280000     0.8920050000
   11      C       0.0000000000     0.0000000000     0.0000000000
   12      C       0.3650030000     0.7826740000     1.0994460000
   13      C       0.9498850000     2.0369120000     0.7767210000
   14      H       0.2091350000     0.4484310000     2.1360880000
   15      C       1.0431590000     2.2368860000    -0.6125460000
   16      S       0.3982970000     0.8540940000    -1.4868090000
   17      C       1.4096090000     3.0227380000     1.8146090000
   18      H       1.2297260000     2.6369800000     2.8366760000
   19      H       0.8773460000     3.9928700000     1.7262390000
   20      H       2.4949100000     3.2385580000     1.7262280000
   21      H       1.4443340000     3.0971600000    -1.1615750000
   22      H       1.1194110000    -4.3927130000    -0.8966810000
   23      H       1.1192770000    -4.3923470000     0.8983720000
   24      H       0.0001150000    -1.4409370000    -1.0800000000
 ----------------------------------------------------------------

   10   -1180.7484802339      5.30e-07  Convergence criterion met
 Total energy in the final basis set =    -1180.7484802339
        RIMP2         total energy =     -1182.7554520484 a.u.

                    Orbital Energies (a.u.)
 --------------------------------------------------------------

 Alpha MOs
 -- Occupied --
-91.9853 -91.9402 -11.2735 -11.2690 -11.2606 -11.2534 -11.2510 -11.2416
-11.2397 -11.2310 -11.2287 -11.2167  -8.9852  -8.9448  -6.6661  -6.6655
 -6.6649  -6.6262  -6.6252  -6.6239  -1.1982  -1.1536  -1.0582  -1.0261
 -1.0018  -0.9626  -0.9122  -0.9002  -0.8119  -0.7622  -0.7414  -0.7029
 -0.6528  -0.6324  -0.6112  -0.5871  -0.5778  -0.5731  -0.5674  -0.5532
 -0.5421  -0.5305  -0.5099  -0.5066  -0.4893  -0.4788  -0.4641  -0.4477
 -0.3573  -0.3384  -0.3117  -0.2814

          Ground-State Mulliken Net Atomic Charges

     Atom                 Charge (a.u.)
  ----------------------------------------
      1 C                    -0.073458
      2 C                    -0.326096
      3 C                    -0.042626
      4 H                     0.174884
      5 C                     0.085938
      6 S                    -0.172979
      7 C                    -0.269538
      8 H                     0.112370
      9 H                     0.102282
     10 H                     0.105303
     11 C                    -0.088175
     12 C                    -0.232984
     13 C                     0.034344
     14 H                     0.183229
     15 C                    -0.237544
     16 S                     0.013864
     17 C                    -0.270686
     18 H                     0.102936
     19 H                     0.107382
     20 H                     0.108006
     21 H                     0.199270
     22 H                     0.108767
     23 H                     0.110887
     24 H                     0.164623
  ----------------------------------------
  Sum of atomic charges =     0.000000

                    Cartesian Multipole Moments
 -----------------------------------------------------------------
    Charge (ESU x 10^10)
                -0.0000
    Dipole Moment (Debye)
         X      -1.4879      Y       0.8419      Z       0.7790
       Tot       1.8787
    Quadrupole Moments (Debye-Ang)
        XX     -89.7544     XY       7.8412     YY     -75.9216
        XZ       0.1005     YZ       2.1712     ZZ     -85.7605

 Total job time:  644.80s(wall), 641.49s(cpu)
        *  Thank you very much for using Q-Chem.  Have a nice day.  *
