 Q-Chem 5.4, Q-Chem, Inc., Pleasanton, CA (2021)
 Q-Chem 5.4.0 for Intel X86 EM64T Linux

User input:
--------------------------------------------------------------
$molecule
0 1
C	-0.671636	-3.866725	0.386946
C	0.530345	-3.703963	-0.306544
C	0.923770	-2.357056	-0.533261
H	1.128109	-4.561092	-0.651857
C	0.000000	-1.440664	0.000000
S	-1.337557	-2.286957	0.772250
C	2.184153	-1.978743	-1.260680
H	2.742769	-2.878678	-1.583283
H	2.863347	-1.376015	-0.622180
H	1.971094	-1.375728	-2.168011
C	0.000000	0.000000	0.000000
C	0.295399	0.811508	1.099446
C	0.768742	2.111949	0.776721
H	0.169256	0.464952	2.136088
C	0.844232	2.319291	-0.612546
S	0.322342	0.885558	-1.486809
C	1.140796	3.134091	1.814609
H	0.995218	2.734123	2.836676
H	0.526006	4.054142	1.726239
H	2.203157	3.443680	1.726228
H	1.168902	3.211257	-1.161575
H	-0.521098	-4.392713	1.336254
H	-1.418509	-4.392347	-0.218374
H	-0.539900	-1.440391	-0.935365
$end

$rem
JOBTYPE		SP
EXCHANGE	HF
CORRELATION	pRIMP2
BASIS		cc-pvtz
METHOD		rimp2
AUX_BASIS	rimp2-cc-pvtz
SOLVENT_METHOD	PCM
PURECART	11111
SYMMETRY	false
MEM_TOTAL	110000
SCF_CONVERGENCE = 6
THRESH=10
$end

$solvent
dielectric 4.90
$end
--------------------------------------------------------------

             Standard Nuclear Orientation (Angstroms)
    I     Atom           X                Y                Z
 ----------------------------------------------------------------
    1      C      -0.6716360000    -3.8667250000     0.3869460000
    2      C       0.5303450000    -3.7039630000    -0.3065440000
    3      C       0.9237700000    -2.3570560000    -0.5332610000
    4      H       1.1281090000    -4.5610920000    -0.6518570000
    5      C       0.0000000000    -1.4406640000     0.0000000000
    6      S      -1.3375570000    -2.2869570000     0.7722500000
    7      C       2.1841530000    -1.9787430000    -1.2606800000
    8      H       2.7427690000    -2.8786780000    -1.5832830000
    9      H       2.8633470000    -1.3760150000    -0.6221800000
   10      H       1.9710940000    -1.3757280000    -2.1680110000
   11      C       0.0000000000     0.0000000000     0.0000000000
   12      C       0.2953990000     0.8115080000     1.0994460000
   13      C       0.7687420000     2.1119490000     0.7767210000
   14      H       0.1692560000     0.4649520000     2.1360880000
   15      C       0.8442320000     2.3192910000    -0.6125460000
   16      S       0.3223420000     0.8855580000    -1.4868090000
   17      C       1.1407960000     3.1340910000     1.8146090000
   18      H       0.9952180000     2.7341230000     2.8366760000
   19      H       0.5260060000     4.0541420000     1.7262390000
   20      H       2.2031570000     3.4436800000     1.7262280000
   21      H       1.1689020000     3.2112570000    -1.1615750000
   22      H      -0.5210980000    -4.3927130000     1.3362540000
   23      H      -1.4185090000    -4.3923470000    -0.2183740000
   24      H      -0.5399000000    -1.4403910000    -0.9353650000
 ----------------------------------------------------------------

   10   -1180.7499892679      5.32e-07  Convergence criterion met
 Total energy in the final basis set =    -1180.7499892679
        RIMP2         total energy =     -1182.7577288698 a.u.

                    Orbital Energies (a.u.)
 --------------------------------------------------------------

 Alpha MOs
 -- Occupied --
-91.9855 -91.9414 -11.2774 -11.2665 -11.2630 -11.2552 -11.2511 -11.2405
-11.2391 -11.2299 -11.2287 -11.2189  -8.9853  -8.9459  -6.6662  -6.6657
 -6.6651  -6.6273  -6.6263  -6.6250  -1.1987  -1.1536  -1.0590  -1.0244
 -1.0050  -0.9616  -0.9129  -0.9010  -0.8113  -0.7676  -0.7335  -0.7055
 -0.6533  -0.6352  -0.6109  -0.5897  -0.5758  -0.5747  -0.5701  -0.5529
 -0.5422  -0.5296  -0.5155  -0.5059  -0.4905  -0.4774  -0.4621  -0.4461
 -0.3547  -0.3427  -0.3170  -0.2756

          Ground-State Mulliken Net Atomic Charges

     Atom                 Charge (a.u.)
  ----------------------------------------
      1 C                    -0.074086
      2 C                    -0.329804
      3 C                    -0.024356
      4 H                     0.176458
      5 C                     0.080406
      6 S                    -0.178442
      7 C                    -0.272971
      8 H                     0.114160
      9 H                     0.111930
     10 H                     0.104015
     11 C                    -0.101631
     12 C                    -0.226132
     13 C                     0.022868
     14 H                     0.187188
     15 C                    -0.236508
     16 S                     0.010589
     17 C                    -0.271305
     18 H                     0.103176
     19 H                     0.108035
     20 H                     0.107300
     21 H                     0.198343
     22 H                     0.111325
     23 H                     0.110227
     24 H                     0.169217
  ----------------------------------------
  Sum of atomic charges =     0.000000

                    Cartesian Multipole Moments
 -----------------------------------------------------------------
    Charge (ESU x 10^10)
                -0.0000
    Dipole Moment (Debye)
         X       2.4385      Y       0.6607      Z      -0.4498
       Tot       2.5661
    Quadrupole Moments (Debye-Ang)
        XX     -90.2574     XY       1.1959     YY     -75.0291
        XZ       0.3462     YZ       3.8924     ZZ     -86.0801

 Total job time:  675.12s(wall), 661.18s(cpu)
        *  Thank you very much for using Q-Chem.  Have a nice day.  *
