 Q-Chem 5.4, Q-Chem, Inc., Pleasanton, CA (2021)
 Q-Chem 5.4.0 for Intel X86 EM64T Linux

User input:
--------------------------------------------------------------
$molecule
0 1
C	0.264439	-3.866725	0.728625
C	-0.209794	-3.703963	-0.575519
C	-0.364749	-2.357056	-1.002336
H	-0.446060	-4.561092	-1.224165
C	-0.000000	-1.440664	-0.000000
S	0.528253	-2.286957	1.451336
C	-0.862253	-1.978743	-2.369885
H	-1.082953	-2.878678	-2.976034
H	-0.115513	-1.376015	-2.927887
H	-1.792797	-1.375728	-2.317620
C	0.000000	0.000000	0.000000
C	0.365003	0.782674	1.099446
C	0.949885	2.036912	0.776721
H	0.209135	0.448431	2.136088
C	1.043159	2.236886	-0.612546
S	0.398297	0.854094	-1.486809
C	1.409609	3.022738	1.814609
H	1.229726	2.636980	2.836676
H	0.877346	3.992870	1.726239
H	2.494910	3.238558	1.726228
H	1.444334	3.097160	-1.161575
H	1.225465	-4.392713	0.745219
H	-0.461378	-4.392347	1.359038
H	1.014907	-1.440937	-0.369273
$end

$rem
JOBTYPE		SP
EXCHANGE	HF
CORRELATION	pRIMP2
BASIS		cc-pvtz
METHOD		rimp2
AUX_BASIS	rimp2-cc-pvtz
SOLVENT_METHOD	PCM
PURECART	11111
SYMMETRY	false
MEM_TOTAL	110000
SCF_CONVERGENCE = 6
THRESH=10
$end

$solvent
dielectric 4.90
$end
--------------------------------------------------------------

             Standard Nuclear Orientation (Angstroms)
    I     Atom           X                Y                Z
 ----------------------------------------------------------------
    1      C       0.2644390000    -3.8667250000     0.7286250000
    2      C      -0.2097940000    -3.7039630000    -0.5755190000
    3      C      -0.3647490000    -2.3570560000    -1.0023360000
    4      H      -0.4460600000    -4.5610920000    -1.2241650000
    5      C       0.0000000000    -1.4406640000     0.0000000000
    6      S       0.5282530000    -2.2869570000     1.4513360000
    7      C      -0.8622530000    -1.9787430000    -2.3698850000
    8      H      -1.0829530000    -2.8786780000    -2.9760340000
    9      H      -0.1155130000    -1.3760150000    -2.9278870000
   10      H      -1.7927970000    -1.3757280000    -2.3176200000
   11      C       0.0000000000     0.0000000000     0.0000000000
   12      C       0.3650030000     0.7826740000     1.0994460000
   13      C       0.9498850000     2.0369120000     0.7767210000
   14      H       0.2091350000     0.4484310000     2.1360880000
   15      C       1.0431590000     2.2368860000    -0.6125460000
   16      S       0.3982970000     0.8540940000    -1.4868090000
   17      C       1.4096090000     3.0227380000     1.8146090000
   18      H       1.2297260000     2.6369800000     2.8366760000
   19      H       0.8773460000     3.9928700000     1.7262390000
   20      H       2.4949100000     3.2385580000     1.7262280000
   21      H       1.4443340000     3.0971600000    -1.1615750000
   22      H       1.2254650000    -4.3927130000     0.7452190000
   23      H      -0.4613780000    -4.3923470000     1.3590380000
   24      H       1.0149070000    -1.4409370000    -0.3692730000
 ----------------------------------------------------------------

   10   -1180.7506967821      4.89e-07  Convergence criterion met
 Total energy in the final basis set =    -1180.7506967821
        RIMP2         total energy =     -1182.7582175247 a.u.

                    Orbital Energies (a.u.)
 --------------------------------------------------------------

 Alpha MOs
 -- Occupied --
-91.9797 -91.9455 -11.2870 -11.2635 -11.2612 -11.2581 -11.2505 -11.2430
-11.2340 -11.2328 -11.2279 -11.2228  -8.9802  -8.9500  -6.6612  -6.6606
 -6.6599  -6.6313  -6.6303  -6.6291  -1.2036  -1.1529  -1.0612  -1.0283
 -1.0058  -0.9572  -0.9161  -0.9016  -0.8133  -0.7724  -0.7206  -0.7036
 -0.6585  -0.6472  -0.6117  -0.5922  -0.5811  -0.5728  -0.5691  -0.5536
 -0.5428  -0.5349  -0.5152  -0.5102  -0.4879  -0.4815  -0.4593  -0.4441
 -0.3586  -0.3428  -0.3268  -0.2655

          Ground-State Mulliken Net Atomic Charges

     Atom                 Charge (a.u.)
  ----------------------------------------
      1 C                    -0.075667
      2 C                    -0.312709
      3 C                    -0.061106
      4 H                     0.177654
      5 C                     0.123119
      6 S                    -0.186893
      7 C                    -0.300554
      8 H                     0.118965
      9 H                     0.107774
     10 H                     0.118322
     11 C                     0.013893
     12 C                    -0.351800
     13 C                     0.064210
     14 H                     0.179134
     15 C                    -0.275450
     16 S                     0.002667
     17 C                    -0.270261
     18 H                     0.103056
     19 H                     0.108475
     20 H                     0.108911
     21 H                     0.195881
     22 H                     0.112163
     23 H                     0.111648
     24 H                     0.188566
  ----------------------------------------
  Sum of atomic charges =     0.000000

                    Cartesian Multipole Moments
 -----------------------------------------------------------------
    Charge (ESU x 10^10)
                -0.0000
    Dipole Moment (Debye)
         X       0.6130      Y      -0.3377      Z      -1.0863
       Tot       1.2922
    Quadrupole Moments (Debye-Ang)
        XX     -89.6883     XY       3.7432     YY     -74.7084
        XZ       0.8862     YZ       4.9544     ZZ     -85.9002

 Total job time:  656.50s(wall), 651.52s(cpu)
        *  Thank you very much for using Q-Chem.  Have a nice day.  *
