 Q-Chem 5.4, Q-Chem, Inc., Pleasanton, CA (2021)
 Q-Chem 5.4.0 for Intel X86 EM64T Linux

User input:
--------------------------------------------------------------
$molecule
0 1
C	-0.763475	-3.866725	0.133897
C	0.603206	-3.703963	-0.106669
C	1.050446	-2.357056	-0.185154
H	1.283024	-4.561092	-0.226709
C	0.000000	-1.440664	0.000000
S	-1.521018	-2.286957	0.268206
C	2.483610	-1.978743	-0.437628
H	3.118875	-2.878678	-0.549717
H	2.903464	-1.376015	0.394664
H	2.593726	-1.375728	-1.363110
C	0.000000	0.000000	0.000000
C	0.431829	0.747884	1.099446
C	1.123799	1.946373	0.776721
H	0.247423	0.428497	2.136088
C	1.234147	2.137457	-0.612546
S	0.471221	0.816130	-1.486809
C	1.667694	2.888380	1.814609
H	1.454874	2.519768	2.836676
H	1.222009	3.901210	1.726239
H	2.767675	3.008788	1.726228
H	1.708773	2.959493	-1.161575
H	-0.946698	-4.392713	1.077442
H	-1.258274	-4.392347	-0.690363
H	0.187427	-1.440937	1.063612
$end

$rem
JOBTYPE		SP
EXCHANGE	HF
CORRELATION	pRIMP2
BASIS		cc-pvtz
METHOD		rimp2
AUX_BASIS	rimp2-cc-pvtz
SOLVENT_METHOD	PCM
PURECART	11111
SYMMETRY	false
MEM_TOTAL	110000
SCF_CONVERGENCE = 6
THRESH=10
$end

$solvent
dielectric 4.90
$end
--------------------------------------------------------------

             Standard Nuclear Orientation (Angstroms)
    I     Atom           X                Y                Z
 ----------------------------------------------------------------
    1      C      -0.7634750000    -3.8667250000     0.1338970000
    2      C       0.6032060000    -3.7039630000    -0.1066690000
    3      C       1.0504460000    -2.3570560000    -0.1851540000
    4      H       1.2830240000    -4.5610920000    -0.2267090000
    5      C       0.0000000000    -1.4406640000     0.0000000000
    6      S      -1.5210180000    -2.2869570000     0.2682060000
    7      C       2.4836100000    -1.9787430000    -0.4376280000
    8      H       3.1188750000    -2.8786780000    -0.5497170000
    9      H       2.9034640000    -1.3760150000     0.3946640000
   10      H       2.5937260000    -1.3757280000    -1.3631100000
   11      C       0.0000000000     0.0000000000     0.0000000000
   12      C       0.4318290000     0.7478840000     1.0994460000
   13      C       1.1237990000     1.9463730000     0.7767210000
   14      H       0.2474230000     0.4284970000     2.1360880000
   15      C       1.2341470000     2.1374570000    -0.6125460000
   16      S       0.4712210000     0.8161300000    -1.4868090000
   17      C       1.6676940000     2.8883800000     1.8146090000
   18      H       1.4548740000     2.5197680000     2.8366760000
   19      H       1.2220090000     3.9012100000     1.7262390000
   20      H       2.7676750000     3.0087880000     1.7262280000
   21      H       1.7087730000     2.9594930000    -1.1615750000
   22      H      -0.9466980000    -4.3927130000     1.0774420000
   23      H      -1.2582740000    -4.3923470000    -0.6903630000
   24      H       0.1874270000    -1.4409370000     1.0636120000
 ----------------------------------------------------------------

   10   -1180.7436744618      6.01e-07  Convergence criterion met
 Total energy in the final basis set =    -1180.7436744618
        RIMP2         total energy =     -1182.7540187837 a.u.

                    Orbital Energies (a.u.)
 --------------------------------------------------------------

 Alpha MOs
 -- Occupied --
-91.9809 -91.9366 -11.2749 -11.2706 -11.2621 -11.2528 -11.2520 -11.2481
-11.2387 -11.2302 -11.2298 -11.2181  -8.9810  -8.9415  -6.6619  -6.6613
 -6.6608  -6.6229  -6.6219  -6.6206  -1.1990  -1.1540  -1.0582  -1.0237
 -1.0074  -0.9601  -0.9107  -0.9020  -0.8117  -0.7623  -0.7380  -0.7016
 -0.6599  -0.6394  -0.6105  -0.5890  -0.5796  -0.5732  -0.5666  -0.5509
 -0.5417  -0.5281  -0.5185  -0.5041  -0.4933  -0.4717  -0.4594  -0.4455
 -0.3533  -0.3436  -0.3144  -0.2767

          Ground-State Mulliken Net Atomic Charges

     Atom                 Charge (a.u.)
  ----------------------------------------
      1 C                    -0.075808
      2 C                    -0.327843
      3 C                    -0.024799
      4 H                     0.175927
      5 C                     0.069177
      6 S                    -0.191495
      7 C                    -0.272895
      8 H                     0.115931
      9 H                     0.103537
     10 H                     0.109792
     11 C                    -0.060772
     12 C                    -0.248972
     13 C                     0.031997
     14 H                     0.182062
     15 C                    -0.228307
     16 S                     0.006326
     17 C                    -0.269826
     18 H                     0.102503
     19 H                     0.108462
     20 H                     0.107270
     21 H                     0.197761
     22 H                     0.108607
     23 H                     0.109753
     24 H                     0.171611
  ----------------------------------------
  Sum of atomic charges =     0.000000

                    Cartesian Multipole Moments
 -----------------------------------------------------------------
    Charge (ESU x 10^10)
                -0.0000
    Dipole Moment (Debye)
         X       3.7022      Y       0.8174      Z       1.8747
       Tot       4.2295
    Quadrupole Moments (Debye-Ang)
        XX     -89.3501     XY       0.7815     YY     -76.9540
        XZ       0.1955     YZ       0.2959     ZZ     -85.7038

 Total job time:  670.29s(wall), 665.02s(cpu)
        *  Thank you very much for using Q-Chem.  Have a nice day.  *
