 Q-Chem 5.4, Q-Chem, Inc., Pleasanton, CA (2021)
 Q-Chem 5.4.0 for Intel X86 EM64T Linux

User input:
--------------------------------------------------------------
$molecule
0 1
C	0.671636	-3.866725	-0.386946
C	-0.530345	-3.703963	0.306544
C	-0.923770	-2.357056	0.533261
H	-1.128109	-4.561092	0.651857
C	-0.000000	-1.440664	-0.000000
S	1.337557	-2.286957	-0.772250
C	-2.184153	-1.978743	1.260680
H	-2.742769	-2.878678	1.583283
H	-2.863347	-1.376015	0.622180
H	-1.971094	-1.375728	2.168011
C	0.000000	0.000000	0.000000
C	0.365003	0.782674	1.099446
C	0.949885	2.036912	0.776721
H	0.209135	0.448431	2.136088
C	1.043159	2.236886	-0.612546
S	0.398297	0.854094	-1.486809
C	1.409609	3.022738	1.814609
H	1.229726	2.636980	2.836676
H	0.877346	3.992870	1.726239
H	2.494910	3.238558	1.726228
H	1.444334	3.097160	-1.161575
H	0.521098	-4.392713	-1.336254
H	1.418509	-4.392347	0.218374
H	-0.539900	-1.440937	-0.935365
$end

$rem
JOBTYPE		SP
EXCHANGE	HF
CORRELATION	pRIMP2
BASIS		cc-pvtz
METHOD		rimp2
AUX_BASIS	rimp2-cc-pvtz
SOLVENT_METHOD	PCM
PURECART	11111
SYMMETRY	false
MEM_TOTAL	110000
SCF_CONVERGENCE = 6
THRESH=10
$end

$solvent
dielectric 4.90
$end
--------------------------------------------------------------

             Standard Nuclear Orientation (Angstroms)
    I     Atom           X                Y                Z
 ----------------------------------------------------------------
    1      C       0.6716360000    -3.8667250000    -0.3869460000
    2      C      -0.5303450000    -3.7039630000     0.3065440000
    3      C      -0.9237700000    -2.3570560000     0.5332610000
    4      H      -1.1281090000    -4.5610920000     0.6518570000
    5      C       0.0000000000    -1.4406640000     0.0000000000
    6      S       1.3375570000    -2.2869570000    -0.7722500000
    7      C      -2.1841530000    -1.9787430000     1.2606800000
    8      H      -2.7427690000    -2.8786780000     1.5832830000
    9      H      -2.8633470000    -1.3760150000     0.6221800000
   10      H      -1.9710940000    -1.3757280000     2.1680110000
   11      C       0.0000000000     0.0000000000     0.0000000000
   12      C       0.3650030000     0.7826740000     1.0994460000
   13      C       0.9498850000     2.0369120000     0.7767210000
   14      H       0.2091350000     0.4484310000     2.1360880000
   15      C       1.0431590000     2.2368860000    -0.6125460000
   16      S       0.3982970000     0.8540940000    -1.4868090000
   17      C       1.4096090000     3.0227380000     1.8146090000
   18      H       1.2297260000     2.6369800000     2.8366760000
   19      H       0.8773460000     3.9928700000     1.7262390000
   20      H       2.4949100000     3.2385580000     1.7262280000
   21      H       1.4443340000     3.0971600000    -1.1615750000
   22      H       0.5210980000    -4.3927130000    -1.3362540000
   23      H       1.4185090000    -4.3923470000     0.2183740000
   24      H      -0.5399000000    -1.4409370000    -0.9353650000
 ----------------------------------------------------------------

   10   -1180.7470902584      5.32e-07  Convergence criterion met
 Total energy in the final basis set =    -1180.7470902584
        RIMP2         total energy =     -1182.7545092111 a.u.

                    Orbital Energies (a.u.)
 --------------------------------------------------------------

 Alpha MOs
 -- Occupied --
-91.9849 -91.9405 -11.2751 -11.2677 -11.2621 -11.2538 -11.2507 -11.2401
-11.2399 -11.2317 -11.2287 -11.2179  -8.9847  -8.9452  -6.6656  -6.6651
 -6.6645  -6.6266  -6.6255  -6.6242  -1.1984  -1.1535  -1.0579  -1.0277
 -1.0005  -0.9635  -0.9117  -0.9004  -0.8138  -0.7586  -0.7434  -0.7027
 -0.6530  -0.6341  -0.6106  -0.5881  -0.5800  -0.5703  -0.5667  -0.5536
 -0.5429  -0.5311  -0.5118  -0.5063  -0.4904  -0.4774  -0.4643  -0.4482
 -0.3562  -0.3396  -0.3171  -0.2740

          Ground-State Mulliken Net Atomic Charges

     Atom                 Charge (a.u.)
  ----------------------------------------
      1 C                    -0.076825
      2 C                    -0.326045
      3 C                    -0.034397
      4 H                     0.175247
      5 C                     0.078848
      6 S                    -0.169925
      7 C                    -0.271239
      8 H                     0.113324
      9 H                     0.104218
     10 H                     0.103447
     11 C                    -0.105769
     12 C                    -0.208869
     13 C                     0.015428
     14 H                     0.189147
     15 C                    -0.227265
     16 S                     0.009231
     17 C                    -0.271865
     18 H                     0.102148
     19 H                     0.107399
     20 H                     0.108099
     21 H                     0.198506
     22 H                     0.108937
     23 H                     0.112513
     24 H                     0.165708
  ----------------------------------------
  Sum of atomic charges =     0.000000

                    Cartesian Multipole Moments
 -----------------------------------------------------------------
    Charge (ESU x 10^10)
                -0.0000
    Dipole Moment (Debye)
         X      -1.5776      Y       0.6929      Z       1.9888
       Tot       2.6314
    Quadrupole Moments (Debye-Ang)
        XX     -90.0166     XY       8.0366     YY     -75.7445
        XZ       0.1299     YZ       0.2145     ZZ     -85.5286

 Total job time:  640.16s(wall), 637.07s(cpu)
        *  Thank you very much for using Q-Chem.  Have a nice day.  *
