 Q-Chem 5.4, Q-Chem, Inc., Pleasanton, CA (2021)
 Q-Chem 5.4.0 for Intel X86 EM64T Linux

User input:
--------------------------------------------------------------
$molecule
0 1
C	0.763475	-3.866725	-0.133897
C	-0.603206	-3.703963	0.106669
C	-1.050446	-2.357056	0.185154
H	-1.283024	-4.561092	0.226709
C	0.000000	-1.440664	0.000000
S	1.521018	-2.286957	-0.268206
C	-2.483610	-1.978743	0.437628
H	-3.118875	-2.878678	0.549717
H	-2.903464	-1.376015	-0.394664
H	-2.593726	-1.375728	1.363110
C	0.000000	0.000000	0.000000
C	0.223548	0.834165	1.099446
C	0.581748	2.170912	0.776721
H	0.128089	0.477934	2.136088
C	0.638880	2.384045	-0.612546
S	0.243934	0.910282	-1.486809
C	0.863301	3.221592	1.814609
H	0.753137	2.810458	2.836676
H	0.170663	4.084559	1.726239
H	1.894637	3.622593	1.726228
H	0.884575	3.300913	-1.161575
H	0.946698	-4.392713	-1.077442
H	1.258274	-4.392347	0.690363
H	-0.187427	-1.440937	-1.063612
$end

$rem
JOBTYPE		SP
EXCHANGE	HF
CORRELATION	pRIMP2
BASIS		cc-pvtz
METHOD		rimp2
AUX_BASIS	rimp2-cc-pvtz
SOLVENT_METHOD	PCM
PURECART	11111
SYMMETRY	false
MEM_TOTAL	110000
SCF_CONVERGENCE = 6
THRESH=10
$end

$solvent
dielectric 4.90
$end
--------------------------------------------------------------

             Standard Nuclear Orientation (Angstroms)
    I     Atom           X                Y                Z
 ----------------------------------------------------------------
    1      C       0.7634750000    -3.8667250000    -0.1338970000
    2      C      -0.6032060000    -3.7039630000     0.1066690000
    3      C      -1.0504460000    -2.3570560000     0.1851540000
    4      H      -1.2830240000    -4.5610920000     0.2267090000
    5      C       0.0000000000    -1.4406640000     0.0000000000
    6      S       1.5210180000    -2.2869570000    -0.2682060000
    7      C      -2.4836100000    -1.9787430000     0.4376280000
    8      H      -3.1188750000    -2.8786780000     0.5497170000
    9      H      -2.9034640000    -1.3760150000    -0.3946640000
   10      H      -2.5937260000    -1.3757280000     1.3631100000
   11      C       0.0000000000     0.0000000000     0.0000000000
   12      C       0.2235480000     0.8341650000     1.0994460000
   13      C       0.5817480000     2.1709120000     0.7767210000
   14      H       0.1280890000     0.4779340000     2.1360880000
   15      C       0.6388800000     2.3840450000    -0.6125460000
   16      S       0.2439340000     0.9102820000    -1.4868090000
   17      C       0.8633010000     3.2215920000     1.8146090000
   18      H       0.7531370000     2.8104580000     2.8366760000
   19      H       0.1706630000     4.0845590000     1.7262390000
   20      H       1.8946370000     3.6225930000     1.7262280000
   21      H       0.8845750000     3.3009130000    -1.1615750000
   22      H       0.9466980000    -4.3927130000    -1.0774420000
   23      H       1.2582740000    -4.3923470000     0.6903630000
   24      H      -0.1874270000    -1.4409370000    -1.0636120000
 ----------------------------------------------------------------

   10   -1180.7561075802      5.15e-07  Convergence criterion met
 Total energy in the final basis set =    -1180.7561075802
        RIMP2         total energy =     -1182.7611831798 a.u.

                    Orbital Energies (a.u.)
 --------------------------------------------------------------

 Alpha MOs
 -- Occupied --
-91.9862 -91.9408 -11.2769 -11.2665 -11.2621 -11.2546 -11.2508 -11.2404
-11.2393 -11.2315 -11.2287 -11.2182  -8.9858  -8.9455  -6.6667  -6.6662
 -6.6656  -6.6269  -6.6259  -6.6246  -1.1980  -1.1536  -1.0583  -1.0266
 -1.0019  -0.9629  -0.9125  -0.9003  -0.8131  -0.7611  -0.7425  -0.7029
 -0.6535  -0.6335  -0.6108  -0.5874  -0.5780  -0.5719  -0.5677  -0.5539
 -0.5426  -0.5301  -0.5112  -0.5062  -0.4907  -0.4810  -0.4640  -0.4486
 -0.3570  -0.3396  -0.3123  -0.2814

          Ground-State Mulliken Net Atomic Charges

     Atom                 Charge (a.u.)
  ----------------------------------------
      1 C                    -0.074677
      2 C                    -0.326498
      3 C                    -0.034651
      4 H                     0.175870
      5 C                     0.102406
      6 S                    -0.173411
      7 C                    -0.267292
      8 H                     0.112304
      9 H                     0.102834
     10 H                     0.104193
     11 C                    -0.108777
     12 C                    -0.222793
     13 C                     0.022822
     14 H                     0.185032
     15 C                    -0.241118
     16 S                     0.015416
     17 C                    -0.272050
     18 H                     0.102721
     19 H                     0.107365
     20 H                     0.108334
     21 H                     0.198706
     22 H                     0.109679
     23 H                     0.112471
     24 H                     0.161112
  ----------------------------------------
  Sum of atomic charges =     0.000000

                    Cartesian Multipole Moments
 -----------------------------------------------------------------
    Charge (ESU x 10^10)
                -0.0000
    Dipole Moment (Debye)
         X      -1.9825      Y       0.7494      Z       1.1567
       Tot       2.4145
    Quadrupole Moments (Debye-Ang)
        XX     -91.0984     XY       6.5313     YY     -74.4094
        XZ      -0.0518     YZ       1.5995     ZZ     -85.7571

 Total job time:  642.13s(wall), 639.56s(cpu)
        *  Thank you very much for using Q-Chem.  Have a nice day.  *
