 Q-Chem 5.4, Q-Chem, Inc., Pleasanton, CA (2021)
 Q-Chem 5.4.0 for Intel X86 EM64T Linux

User input:
--------------------------------------------------------------
$molecule
0 1
C	-0.594240	-3.866725	0.497696
C	0.469057	-3.703963	-0.393981
C	0.817136	-2.357056	-0.685571
H	0.997777	-4.561092	-0.837848
C	-0.000000	-1.440664	-0.000000
S	-1.183137	-2.286957	0.992782
C	1.932056	-1.978743	-1.620802
H	2.426166	-2.878678	-2.035506
H	2.711806	-1.376015	-1.109943
H	1.564678	-1.375728	-2.477350
C	0.000000	0.000000	0.000000
C	0.365003	0.782674	1.099446
C	0.949885	2.036912	0.776721
H	0.209135	0.448431	2.136088
C	1.043159	2.236886	-0.612546
S	0.398297	0.854094	-1.486809
C	1.409609	3.022738	1.814609
H	1.229726	2.636980	2.836676
H	0.877346	3.992870	1.726239
H	2.494910	3.238558	1.726228
H	1.444334	3.097160	-1.161575
H	-0.281143	-4.392713	1.406441
H	-1.434879	-4.392347	0.031265
H	-0.694122	-1.440391	-0.827402
$end

$rem
JOBTYPE		SP
EXCHANGE	HF
CORRELATION	pRIMP2
BASIS		cc-pvtz
METHOD		rimp2
AUX_BASIS	rimp2-cc-pvtz
SOLVENT_METHOD	PCM
PURECART	11111
SYMMETRY	false
MEM_TOTAL	110000
SCF_CONVERGENCE = 6
THRESH=10
$end

$solvent
dielectric 4.90
$end
--------------------------------------------------------------

             Standard Nuclear Orientation (Angstroms)
    I     Atom           X                Y                Z
 ----------------------------------------------------------------
    1      C      -0.5942400000    -3.8667250000     0.4976960000
    2      C       0.4690570000    -3.7039630000    -0.3939810000
    3      C       0.8171360000    -2.3570560000    -0.6855710000
    4      H       0.9977770000    -4.5610920000    -0.8378480000
    5      C       0.0000000000    -1.4406640000     0.0000000000
    6      S      -1.1831370000    -2.2869570000     0.9927820000
    7      C       1.9320560000    -1.9787430000    -1.6208020000
    8      H       2.4261660000    -2.8786780000    -2.0355060000
    9      H       2.7118060000    -1.3760150000    -1.1099430000
   10      H       1.5646780000    -1.3757280000    -2.4773500000
   11      C       0.0000000000     0.0000000000     0.0000000000
   12      C       0.3650030000     0.7826740000     1.0994460000
   13      C       0.9498850000     2.0369120000     0.7767210000
   14      H       0.2091350000     0.4484310000     2.1360880000
   15      C       1.0431590000     2.2368860000    -0.6125460000
   16      S       0.3982970000     0.8540940000    -1.4868090000
   17      C       1.4096090000     3.0227380000     1.8146090000
   18      H       1.2297260000     2.6369800000     2.8366760000
   19      H       0.8773460000     3.9928700000     1.7262390000
   20      H       2.4949100000     3.2385580000     1.7262280000
   21      H       1.4443340000     3.0971600000    -1.1615750000
   22      H      -0.2811430000    -4.3927130000     1.4064410000
   23      H      -1.4348790000    -4.3923470000     0.0312650000
   24      H      -0.6941220000    -1.4403910000    -0.8274020000
 ----------------------------------------------------------------

   10   -1180.7426764487      5.64e-07  Convergence criterion met
 Total energy in the final basis set =    -1180.7426764487
        RIMP2         total energy =     -1182.7527119326 a.u.

                    Orbital Energies (a.u.)
 --------------------------------------------------------------

 Alpha MOs
 -- Occupied --
-91.9839 -91.9417 -11.2768 -11.2665 -11.2633 -11.2552 -11.2507 -11.2407
-11.2389 -11.2292 -11.2285 -11.2188  -8.9840  -8.9462  -6.6649  -6.6644
 -6.6638  -6.6276  -6.6266  -6.6254  -1.1992  -1.1534  -1.0591  -1.0242
 -1.0054  -0.9608  -0.9127  -0.9015  -0.8107  -0.7689  -0.7303  -0.7061
 -0.6530  -0.6365  -0.6109  -0.5910  -0.5772  -0.5739  -0.5699  -0.5525
 -0.5420  -0.5297  -0.5156  -0.5082  -0.4899  -0.4744  -0.4604  -0.4452
 -0.3548  -0.3420  -0.3192  -0.2719

          Ground-State Mulliken Net Atomic Charges

     Atom                 Charge (a.u.)
  ----------------------------------------
      1 C                    -0.071363
      2 C                    -0.329507
      3 C                    -0.030092
      4 H                     0.176967
      5 C                     0.075006
      6 S                    -0.181227
      7 C                    -0.277510
      8 H                     0.113479
      9 H                     0.115246
     10 H                     0.104749
     11 C                    -0.097835
     12 C                    -0.219335
     13 C                     0.018890
     14 H                     0.187744
     15 C                    -0.232086
     16 S                     0.006471
     17 C                    -0.270925
     18 H                     0.103078
     19 H                     0.107843
     20 H                     0.106986
     21 H                     0.198306
     22 H                     0.111013
     23 H                     0.110178
     24 H                     0.173925
  ----------------------------------------
  Sum of atomic charges =     0.000000

                    Cartesian Multipole Moments
 -----------------------------------------------------------------
    Charge (ESU x 10^10)
                -0.0000
    Dipole Moment (Debye)
         X       2.2597      Y       0.5570      Z      -0.7719
       Tot       2.4520
    Quadrupole Moments (Debye-Ang)
        XX     -89.5366     XY       2.4671     YY     -75.8216
        XZ       0.2429     YZ       4.1955     ZZ     -86.0374

 Total job time:  683.58s(wall), 660.46s(cpu)
        *  Thank you very much for using Q-Chem.  Have a nice day.  *
