 Q-Chem 5.4, Q-Chem, Inc., Pleasanton, CA (2021)
 Q-Chem 5.4.0 for Intel X86 EM64T Linux

User input:
--------------------------------------------------------------
$molecule
0 1
C	-0.593324	-3.866725	-0.498788
C	0.469446	-3.703963	0.393517
C	0.817050	-2.357056	0.685674
H	0.998381	-4.561092	0.837128
C	-0.000000	-1.440664	-0.000000
S	-1.183149	-2.286957	-0.992768
C	1.931676	-1.978743	1.621254
H	2.425882	-2.878678	2.035845
H	1.563980	-1.376015	2.477868
H	2.711417	-1.375728	1.110719
C	0.000000	0.000000	0.000000
C	0.555137	0.661535	1.099446
C	1.444710	1.721658	0.776721
H	0.318072	0.379023	2.136088
C	1.586563	1.890676	-0.612546
S	0.605781	0.721904	-1.486809
C	2.143920	2.554907	1.814609
H	1.870325	2.228851	2.836676
H	1.880882	3.629742	1.726239
H	3.248098	2.482476	1.726228
H	2.196723	2.617806	-1.161575
H	-1.433894	-4.392713	-0.032646
H	-0.279954	-4.392347	-1.407651
H	-0.694299	-1.440937	0.827254
$end

$rem
JOBTYPE		SP
EXCHANGE	HF
CORRELATION	pRIMP2
BASIS		cc-pvtz
METHOD		rimp2
AUX_BASIS	rimp2-cc-pvtz
SOLVENT_METHOD	PCM
PURECART	11111
SYMMETRY	false
MEM_TOTAL	110000
SCF_CONVERGENCE = 6
THRESH=10
$end

$solvent
dielectric 4.90
$end
--------------------------------------------------------------

             Standard Nuclear Orientation (Angstroms)
    I     Atom           X                Y                Z
 ----------------------------------------------------------------
    1      C      -0.5933240000    -3.8667250000    -0.4987880000
    2      C       0.4694460000    -3.7039630000     0.3935170000
    3      C       0.8170500000    -2.3570560000     0.6856740000
    4      H       0.9983810000    -4.5610920000     0.8371280000
    5      C       0.0000000000    -1.4406640000     0.0000000000
    6      S      -1.1831490000    -2.2869570000    -0.9927680000
    7      C       1.9316760000    -1.9787430000     1.6212540000
    8      H       2.4258820000    -2.8786780000     2.0358450000
    9      H       1.5639800000    -1.3760150000     2.4778680000
   10      H       2.7114170000    -1.3757280000     1.1107190000
   11      C       0.0000000000     0.0000000000     0.0000000000
   12      C       0.5551370000     0.6615350000     1.0994460000
   13      C       1.4447100000     1.7216580000     0.7767210000
   14      H       0.3180720000     0.3790230000     2.1360880000
   15      C       1.5865630000     1.8906760000    -0.6125460000
   16      S       0.6057810000     0.7219040000    -1.4868090000
   17      C       2.1439200000     2.5549070000     1.8146090000
   18      H       1.8703250000     2.2288510000     2.8366760000
   19      H       1.8808820000     3.6297420000     1.7262390000
   20      H       3.2480980000     2.4824760000     1.7262280000
   21      H       2.1967230000     2.6178060000    -1.1615750000
   22      H      -1.4338940000    -4.3927130000    -0.0326460000
   23      H      -0.2799540000    -4.3923470000    -1.4076510000
   24      H      -0.6942990000    -1.4409370000     0.8272540000
 ----------------------------------------------------------------

   10   -1180.7284271901      7.30e-07  Convergence criterion met
 Total energy in the final basis set =    -1180.7284271901
        RIMP2         total energy =     -1182.7439809223 a.u.

                    Orbital Energies (a.u.)
 --------------------------------------------------------------

 Alpha MOs
 -- Occupied --
-91.9780 -91.9385 -11.2738 -11.2691 -11.2619 -11.2534 -11.2525 -11.2501
-11.2394 -11.2308 -11.2306 -11.2178  -8.9785  -8.9432  -6.6594  -6.6586
 -6.6582  -6.6246  -6.6236  -6.6224  -1.2003  -1.1542  -1.0584  -1.0274
 -1.0028  -0.9630  -0.9116  -0.9018  -0.8126  -0.7600  -0.7352  -0.7081
 -0.6546  -0.6417  -0.6119  -0.5915  -0.5869  -0.5717  -0.5601  -0.5550
 -0.5407  -0.5307  -0.5214  -0.5086  -0.4833  -0.4679  -0.4586  -0.4444
 -0.3534  -0.3416  -0.3199  -0.2714

          Ground-State Mulliken Net Atomic Charges

     Atom                 Charge (a.u.)
  ----------------------------------------
      1 C                    -0.072497
      2 C                    -0.326409
      3 C                    -0.060861
      4 H                     0.177101
      5 C                     0.101012
      6 S                    -0.187883
      7 C                    -0.283455
      8 H                     0.119958
      9 H                     0.097753
     10 H                     0.114916
     11 C                    -0.077619
     12 C                    -0.260086
     13 C                     0.032292
     14 H                     0.194451
     15 C                    -0.217810
     16 S                     0.009702
     17 C                    -0.271063
     18 H                     0.102137
     19 H                     0.110954
     20 H                     0.107345
     21 H                     0.198617
     22 H                     0.107538
     23 H                     0.109437
     24 H                     0.174471
  ----------------------------------------
  Sum of atomic charges =     0.000000

                    Cartesian Multipole Moments
 -----------------------------------------------------------------
    Charge (ESU x 10^10)
                -0.0000
    Dipole Moment (Debye)
         X       2.8997      Y       0.6457      Z       3.8730
       Tot       4.8811
    Quadrupole Moments (Debye-Ang)
        XX     -86.7835     XY       3.8169     YY     -78.3989
        XZ       0.6536     YZ      -2.5839     ZZ     -86.2378

 Total job time:  715.92s(wall), 712.65s(cpu)
        *  Thank you very much for using Q-Chem.  Have a nice day.  *
