 Q-Chem 5.4, Q-Chem, Inc., Pleasanton, CA (2021)
 Q-Chem 5.4.0 for Intel X86 EM64T Linux

User input:
--------------------------------------------------------------
$molecule
0 1
C	-0.388181	-3.866725	0.670924
C	0.306020	-3.703963	-0.530648
C	0.533378	-2.357056	-0.923703
H	0.651043	-4.561092	-1.128579
C	0.000000	-1.440664	0.000000
S	-0.772234	-2.286957	1.337567
C	1.261192	-1.978743	-2.183857
H	1.583666	-2.878678	-2.742548
H	2.168641	-1.376015	-1.970497
H	0.623012	-1.375728	-2.863099
C	0.000000	0.000000	0.000000
C	0.747916	0.431772	1.099446
C	1.946425	1.123709	0.776721
H	0.428523	0.247378	2.136088
C	2.137531	1.234018	-0.612546
S	0.816154	0.471179	-1.486809
C	2.888455	1.667564	1.814609
H	2.519842	1.454746	2.836676
H	3.008896	2.767543	1.726239
H	3.901271	1.221850	1.726228
H	2.959587	1.708609	-1.161575
H	0.216843	-4.392713	1.417779
H	-1.337652	-4.392347	0.520136
H	-0.935250	-1.440391	-0.540100
$end

$rem
JOBTYPE		SP
EXCHANGE	HF
CORRELATION	pRIMP2
BASIS		cc-pvtz
METHOD		rimp2
AUX_BASIS	rimp2-cc-pvtz
SOLVENT_METHOD	PCM
PURECART	11111
SYMMETRY	false
MEM_TOTAL	110000
SCF_CONVERGENCE = 6
THRESH=10
$end

$solvent
dielectric 4.90
$end
--------------------------------------------------------------

             Standard Nuclear Orientation (Angstroms)
    I     Atom           X                Y                Z
 ----------------------------------------------------------------
    1      C      -0.3881810000    -3.8667250000     0.6709240000
    2      C       0.3060200000    -3.7039630000    -0.5306480000
    3      C       0.5333780000    -2.3570560000    -0.9237030000
    4      H       0.6510430000    -4.5610920000    -1.1285790000
    5      C       0.0000000000    -1.4406640000     0.0000000000
    6      S      -0.7722340000    -2.2869570000     1.3375670000
    7      C       1.2611920000    -1.9787430000    -2.1838570000
    8      H       1.5836660000    -2.8786780000    -2.7425480000
    9      H       2.1686410000    -1.3760150000    -1.9704970000
   10      H       0.6230120000    -1.3757280000    -2.8630990000
   11      C       0.0000000000     0.0000000000     0.0000000000
   12      C       0.7479160000     0.4317720000     1.0994460000
   13      C       1.9464250000     1.1237090000     0.7767210000
   14      H       0.4285230000     0.2473780000     2.1360880000
   15      C       2.1375310000     1.2340180000    -0.6125460000
   16      S       0.8161540000     0.4711790000    -1.4868090000
   17      C       2.8884550000     1.6675640000     1.8146090000
   18      H       2.5198420000     1.4547460000     2.8366760000
   19      H       3.0088960000     2.7675430000     1.7262390000
   20      H       3.9012710000     1.2218500000     1.7262280000
   21      H       2.9595870000     1.7086090000    -1.1615750000
   22      H       0.2168430000    -4.3927130000     1.4177790000
   23      H      -1.3376520000    -4.3923470000     0.5201360000
   24      H      -0.9352500000    -1.4403910000    -0.5401000000
 ----------------------------------------------------------------

   11   -1180.6431454736      5.67e-07  Convergence criterion met
 Total energy in the final basis set =    -1180.6431454736
        RIMP2         total energy =     -1182.6766906076 a.u.

                    Orbital Energies (a.u.)
 --------------------------------------------------------------

 Alpha MOs
 -- Occupied --
-91.9752 -91.9371 -11.2846 -11.2610 -11.2534 -11.2506 -11.2486 -11.2477
-11.2377 -11.2292 -11.2261 -11.2118  -8.9777  -8.9417  -6.6581  -6.6575
 -6.6571  -6.6231  -6.6221  -6.6209  -1.2053  -1.1525  -1.0598  -1.0282
 -1.0052  -0.9586  -0.9120  -0.9054  -0.8022  -0.7738  -0.7270  -0.7101
 -0.6503  -0.6370  -0.6148  -0.5963  -0.5849  -0.5734  -0.5683  -0.5475
 -0.5406  -0.5291  -0.5221  -0.5183  -0.4878  -0.4529  -0.4396  -0.4350
 -0.3517  -0.3289  -0.3236  -0.2586

          Ground-State Mulliken Net Atomic Charges

     Atom                 Charge (a.u.)
  ----------------------------------------
      1 C                    -0.066097
      2 C                    -0.348380
      3 C                    -0.055152
      4 H                     0.175276
      5 C                     0.053916
      6 S                    -0.212850
      7 C                    -0.251517
      8 H                     0.103475
      9 H                     0.109673
     10 H                     0.104354
     11 C                    -0.173759
     12 C                    -0.100589
     13 C                    -0.023603
     14 H                     0.192455
     15 C                    -0.191100
     16 S                     0.033000
     17 C                    -0.268424
     18 H                     0.103432
     19 H                     0.106588
     20 H                     0.104186
     21 H                     0.202439
     22 H                     0.108837
     23 H                     0.106346
     24 H                     0.187492
  ----------------------------------------
  Sum of atomic charges =     0.000000

                    Cartesian Multipole Moments
 -----------------------------------------------------------------
    Charge (ESU x 10^10)
                -0.0000
    Dipole Moment (Debye)
         X       3.3546      Y       0.6459      Z      -1.3092
       Tot       3.6585
    Quadrupole Moments (Debye-Ang)
        XX     -82.3119     XY       4.7144     YY     -84.6965
        XZ      -0.1057     YZ       4.0772     ZZ     -85.0233

 Total job time:  820.44s(wall), 815.18s(cpu)
        *  Thank you very much for using Q-Chem.  Have a nice day.  *
