 Q-Chem 5.4, Q-Chem, Inc., Pleasanton, CA (2021)
 Q-Chem 5.4.0 for Intel X86 EM64T Linux

User input:
--------------------------------------------------------------
$molecule
0 1
C	-0.497696	-3.866725	-0.594240
C	0.393981	-3.703963	0.469057
C	0.685571	-2.357056	0.817136
H	0.837848	-4.561092	0.997777
C	0.000000	-1.440664	0.000000
S	-0.992782	-2.286957	-1.183137
C	1.620802	-1.978743	1.932056
H	2.035506	-2.878678	2.426166
H	1.109943	-1.376015	2.711806
H	2.477350	-1.375728	1.564678
C	0.000000	0.000000	0.000000
C	0.223548	0.834165	1.099446
C	0.581748	2.170912	0.776721
H	0.128089	0.477934	2.136088
C	0.638880	2.384045	-0.612546
S	0.243934	0.910282	-1.486809
C	0.863301	3.221592	1.814609
H	0.753137	2.810458	2.836676
H	0.170663	4.084559	1.726239
H	1.894637	3.622593	1.726228
H	0.884575	3.300913	-1.161575
H	-1.406441	-4.392713	-0.281143
H	-0.031265	-4.392347	-1.434879
H	0.827402	-1.440391	-0.694122
$end

$rem
JOBTYPE		SP
EXCHANGE	HF
CORRELATION	pRIMP2
BASIS		cc-pvtz
METHOD		rimp2
AUX_BASIS	rimp2-cc-pvtz
SOLVENT_METHOD	PCM
PURECART	11111
SYMMETRY	false
MEM_TOTAL	110000
SCF_CONVERGENCE = 6
THRESH=10
$end

$solvent
dielectric 4.90
$end
--------------------------------------------------------------

             Standard Nuclear Orientation (Angstroms)
    I     Atom           X                Y                Z
 ----------------------------------------------------------------
    1      C      -0.4976960000    -3.8667250000    -0.5942400000
    2      C       0.3939810000    -3.7039630000     0.4690570000
    3      C       0.6855710000    -2.3570560000     0.8171360000
    4      H       0.8378480000    -4.5610920000     0.9977770000
    5      C       0.0000000000    -1.4406640000     0.0000000000
    6      S      -0.9927820000    -2.2869570000    -1.1831370000
    7      C       1.6208020000    -1.9787430000     1.9320560000
    8      H       2.0355060000    -2.8786780000     2.4261660000
    9      H       1.1099430000    -1.3760150000     2.7118060000
   10      H       2.4773500000    -1.3757280000     1.5646780000
   11      C       0.0000000000     0.0000000000     0.0000000000
   12      C       0.2235480000     0.8341650000     1.0994460000
   13      C       0.5817480000     2.1709120000     0.7767210000
   14      H       0.1280890000     0.4779340000     2.1360880000
   15      C       0.6388800000     2.3840450000    -0.6125460000
   16      S       0.2439340000     0.9102820000    -1.4868090000
   17      C       0.8633010000     3.2215920000     1.8146090000
   18      H       0.7531370000     2.8104580000     2.8366760000
   19      H       0.1706630000     4.0845590000     1.7262390000
   20      H       1.8946370000     3.6225930000     1.7262280000
   21      H       0.8845750000     3.3009130000    -1.1615750000
   22      H      -1.4064410000    -4.3927130000    -0.2811430000
   23      H      -0.0312650000    -4.3923470000    -1.4348790000
   24      H       0.8274020000    -1.4403910000    -0.6941220000
 ----------------------------------------------------------------

   10   -1180.7558754561      5.07e-07  Convergence criterion met
 Total energy in the final basis set =    -1180.7558754561
        RIMP2         total energy =     -1182.7613881661 a.u.

                    Orbital Energies (a.u.)
 --------------------------------------------------------------

 Alpha MOs
 -- Occupied --
-91.9826 -91.9428 -11.2847 -11.2649 -11.2603 -11.2588 -11.2505 -11.2427
-11.2351 -11.2324 -11.2287 -11.2220  -8.9826  -8.9477  -6.6636  -6.6630
 -6.6623  -6.6291  -6.6280  -6.6268  -1.2012  -1.1531  -1.0600  -1.0296
 -1.0008  -0.9633  -0.9140  -0.9001  -0.8149  -0.7618  -0.7394  -0.7036
 -0.6543  -0.6414  -0.6108  -0.5915  -0.5804  -0.5700  -0.5657  -0.5538
 -0.5457  -0.5333  -0.5194  -0.5057  -0.4869  -0.4798  -0.4641  -0.4480
 -0.3565  -0.3434  -0.3231  -0.2693

          Ground-State Mulliken Net Atomic Charges

     Atom                 Charge (a.u.)
  ----------------------------------------
      1 C                    -0.074473
      2 C                    -0.318141
      3 C                    -0.042279
      4 H                     0.178151
      5 C                     0.104761
      6 S                    -0.175848
      7 C                    -0.284104
      8 H                     0.118269
      9 H                     0.102799
     10 H                     0.110166
     11 C                    -0.051151
     12 C                    -0.294461
     13 C                     0.045456
     14 H                     0.190319
     15 C                    -0.261050
     16 S                     0.007657
     17 C                    -0.271991
     18 H                     0.101604
     19 H                     0.109264
     20 H                     0.108367
     21 H                     0.197101
     22 H                     0.113711
     23 H                     0.110254
     24 H                     0.175622
  ----------------------------------------
  Sum of atomic charges =     0.000000

                    Cartesian Multipole Moments
 -----------------------------------------------------------------
    Charge (ESU x 10^10)
                -0.0000
    Dipole Moment (Debye)
         X       2.6250      Y       0.0462      Z       2.8197
       Tot       3.8527
    Quadrupole Moments (Debye-Ang)
        XX     -91.3112     XY      -0.7130     YY     -73.7802
        XZ       0.3145     YZ      -0.7336     ZZ     -85.7371

 Total job time:  653.40s(wall), 651.16s(cpu)
        *  Thank you very much for using Q-Chem.  Have a nice day.  *
