 Q-Chem 5.4, Q-Chem, Inc., Pleasanton, CA (2021)
 Q-Chem 5.4.0 for Intel X86 EM64T Linux

User input:
--------------------------------------------------------------
$molecule
0 1
C	0.000713	-3.866725	-0.775127
C	0.000302	-3.703963	0.612565
C	-0.000067	-2.357056	1.066639
H	0.000470	-4.561092	1.302900
C	0.000000	-1.440664	0.000000
S	-0.000009	-2.286957	-1.544483
C	-0.000295	-1.978743	2.521872
H	-0.000221	-2.878678	3.166949
H	-0.892850	-1.376015	2.790821
H	0.892005	-1.375728	2.791023
C	0.000000	0.000000	0.000000
C	0.223548	0.834165	1.099446
C	0.581748	2.170912	0.776721
H	0.128089	0.477934	2.136088
C	0.638880	2.384045	-0.612546
S	0.243934	0.910282	-1.486809
C	0.863301	3.221592	1.814609
H	0.753137	2.810458	2.836676
H	0.170663	4.084559	1.726239
H	1.894637	3.622593	1.726228
H	0.884575	3.300913	-1.161575
H	-0.896681	-4.392713	-1.119411
H	0.898372	-4.392347	-1.119277
H	1.080000	-1.440391	0.000115
$end

$rem
JOBTYPE		SP
EXCHANGE	HF
CORRELATION	pRIMP2
BASIS		cc-pvtz
METHOD		rimp2
AUX_BASIS	rimp2-cc-pvtz
SOLVENT_METHOD	PCM
PURECART	11111
SYMMETRY	false
MEM_TOTAL	110000
SCF_CONVERGENCE = 6
THRESH=10
$end

$solvent
dielectric 4.90
$end
--------------------------------------------------------------

             Standard Nuclear Orientation (Angstroms)
    I     Atom           X                Y                Z
 ----------------------------------------------------------------
    1      C       0.0007130000    -3.8667250000    -0.7751270000
    2      C       0.0003020000    -3.7039630000     0.6125650000
    3      C      -0.0000670000    -2.3570560000     1.0666390000
    4      H       0.0004700000    -4.5610920000     1.3029000000
    5      C       0.0000000000    -1.4406640000     0.0000000000
    6      S      -0.0000090000    -2.2869570000    -1.5444830000
    7      C      -0.0002950000    -1.9787430000     2.5218720000
    8      H      -0.0002210000    -2.8786780000     3.1669490000
    9      H      -0.8928500000    -1.3760150000     2.7908210000
   10      H       0.8920050000    -1.3757280000     2.7910230000
   11      C       0.0000000000     0.0000000000     0.0000000000
   12      C       0.2235480000     0.8341650000     1.0994460000
   13      C       0.5817480000     2.1709120000     0.7767210000
   14      H       0.1280890000     0.4779340000     2.1360880000
   15      C       0.6388800000     2.3840450000    -0.6125460000
   16      S       0.2439340000     0.9102820000    -1.4868090000
   17      C       0.8633010000     3.2215920000     1.8146090000
   18      H       0.7531370000     2.8104580000     2.8366760000
   19      H       0.1706630000     4.0845590000     1.7262390000
   20      H       1.8946370000     3.6225930000     1.7262280000
   21      H       0.8845750000     3.3009130000    -1.1615750000
   22      H      -0.8966810000    -4.3927130000    -1.1194110000
   23      H       0.8983720000    -4.3923470000    -1.1192770000
   24      H       1.0800000000    -1.4403910000     0.0001150000
 ----------------------------------------------------------------

   10   -1180.7544415704      4.96e-07  Convergence criterion met
 Total energy in the final basis set =    -1180.7544415704
        RIMP2         total energy =     -1182.7609598099 a.u.

                    Orbital Energies (a.u.)
 --------------------------------------------------------------

 Alpha MOs
 -- Occupied --
-91.9838 -91.9456 -11.2905 -11.2665 -11.2631 -11.2531 -11.2498 -11.2447
-11.2344 -11.2280 -11.2269 -11.2246  -8.9835  -8.9504  -6.6645  -6.6639
 -6.6632  -6.6318  -6.6308  -6.6295  -1.2036  -1.1522  -1.0609  -1.0327
 -1.0007  -0.9615  -0.9166  -0.8994  -0.8180  -0.7638  -0.7277  -0.7053
 -0.6590  -0.6492  -0.6108  -0.5944  -0.5851  -0.5691  -0.5598  -0.5524
 -0.5456  -0.5365  -0.5243  -0.5016  -0.4856  -0.4824  -0.4695  -0.4423
 -0.3616  -0.3440  -0.3241  -0.2637

          Ground-State Mulliken Net Atomic Charges

     Atom                 Charge (a.u.)
  ----------------------------------------
      1 C                    -0.076283
      2 C                    -0.302145
      3 C                    -0.071944
      4 H                     0.179107
      5 C                     0.122958
      6 S                    -0.181127
      7 C                    -0.304355
      8 H                     0.122414
      9 H                     0.111610
     10 H                     0.105111
     11 C                    -0.010775
     12 C                    -0.310086
     13 C                     0.051253
     14 H                     0.186942
     15 C                    -0.292137
     16 S                     0.006911
     17 C                    -0.271760
     18 H                     0.100464
     19 H                     0.108518
     20 H                     0.108432
     21 H                     0.196804
     22 H                     0.113253
     23 H                     0.112487
     24 H                     0.194347
  ----------------------------------------
  Sum of atomic charges =     0.000000

                    Cartesian Multipole Moments
 -----------------------------------------------------------------
    Charge (ESU x 10^10)
                -0.0000
    Dipole Moment (Debye)
         X       1.2303      Y      -0.6410      Z       3.7625
       Tot       4.0101
    Quadrupole Moments (Debye-Ang)
        XX     -91.0766     XY       0.9506     YY     -73.3505
        XZ       0.0576     YZ      -2.4387     ZZ     -85.7306

 Total job time:  663.69s(wall), 661.11s(cpu)
        *  Thank you very much for using Q-Chem.  Have a nice day.  *
