 Q-Chem 5.4, Q-Chem, Inc., Pleasanton, CA (2021)
 Q-Chem 5.4.0 for Intel X86 EM64T Linux

User input:
--------------------------------------------------------------
$molecule
0 1
C	-0.498788	-3.866725	0.593324
C	0.393517	-3.703963	-0.469446
C	0.685674	-2.357056	-0.817050
H	0.837128	-4.561092	-0.998381
C	0.000000	-1.440664	0.000000
S	-0.992768	-2.286957	1.183149
C	1.621254	-1.978743	-1.931676
H	2.035845	-2.878678	-2.425882
H	2.477868	-1.376015	-1.563980
H	1.110719	-1.375728	-2.711417
C	0.000000	0.000000	0.000000
C	0.223548	0.834165	1.099446
C	0.581748	2.170912	0.776721
H	0.128089	0.477934	2.136088
C	0.638880	2.384045	-0.612546
S	0.243934	0.910282	-1.486809
C	0.863301	3.221592	1.814609
H	0.753137	2.810458	2.836676
H	0.170663	4.084559	1.726239
H	1.894637	3.622593	1.726228
H	0.884575	3.300913	-1.161575
H	-0.032646	-4.392713	1.433894
H	-1.407651	-4.392347	0.279954
H	0.827254	-1.440937	0.694299
$end

$rem
JOBTYPE		SP
EXCHANGE	HF
CORRELATION	pRIMP2
BASIS		cc-pvtz
METHOD		rimp2
AUX_BASIS	rimp2-cc-pvtz
SOLVENT_METHOD	PCM
PURECART	11111
SYMMETRY	false
MEM_TOTAL	110000
SCF_CONVERGENCE = 6
THRESH=10
$end

$solvent
dielectric 4.90
$end
--------------------------------------------------------------

             Standard Nuclear Orientation (Angstroms)
    I     Atom           X                Y                Z
 ----------------------------------------------------------------
    1      C      -0.4987880000    -3.8667250000     0.5933240000
    2      C       0.3935170000    -3.7039630000    -0.4694460000
    3      C       0.6856740000    -2.3570560000    -0.8170500000
    4      H       0.8371280000    -4.5610920000    -0.9983810000
    5      C       0.0000000000    -1.4406640000     0.0000000000
    6      S      -0.9927680000    -2.2869570000     1.1831490000
    7      C       1.6212540000    -1.9787430000    -1.9316760000
    8      H       2.0358450000    -2.8786780000    -2.4258820000
    9      H       2.4778680000    -1.3760150000    -1.5639800000
   10      H       1.1107190000    -1.3757280000    -2.7114170000
   11      C       0.0000000000     0.0000000000     0.0000000000
   12      C       0.2235480000     0.8341650000     1.0994460000
   13      C       0.5817480000     2.1709120000     0.7767210000
   14      H       0.1280890000     0.4779340000     2.1360880000
   15      C       0.6388800000     2.3840450000    -0.6125460000
   16      S       0.2439340000     0.9102820000    -1.4868090000
   17      C       0.8633010000     3.2215920000     1.8146090000
   18      H       0.7531370000     2.8104580000     2.8366760000
   19      H       0.1706630000     4.0845590000     1.7262390000
   20      H       1.8946370000     3.6225930000     1.7262280000
   21      H       0.8845750000     3.3009130000    -1.1615750000
   22      H      -0.0326460000    -4.3927130000     1.4338940000
   23      H      -1.4076510000    -4.3923470000     0.2799540000
   24      H       0.8272540000    -1.4409370000     0.6942990000
 ----------------------------------------------------------------

   10   -1180.7533270065      4.96e-07  Convergence criterion met
 Total energy in the final basis set =    -1180.7533270065
        RIMP2         total energy =     -1182.7609472946 a.u.

                    Orbital Energies (a.u.)
 --------------------------------------------------------------

 Alpha MOs
 -- Occupied --
-91.9823 -91.9432 -11.2866 -11.2647 -11.2581 -11.2574 -11.2505 -11.2424
-11.2345 -11.2312 -11.2283 -11.2211  -8.9822  -8.9479  -6.6631  -6.6625
 -6.6619  -6.6293  -6.6282  -6.6269  -1.2010  -1.1525  -1.0597  -1.0264
 -1.0075  -0.9567  -0.9137  -0.9016  -0.8135  -0.7691  -0.7252  -0.7005
 -0.6628  -0.6440  -0.6106  -0.5863  -0.5810  -0.5737  -0.5681  -0.5533
 -0.5424  -0.5323  -0.5148  -0.5082  -0.4921  -0.4791  -0.4573  -0.4481
 -0.3564  -0.3431  -0.3210  -0.2672

          Ground-State Mulliken Net Atomic Charges

     Atom                 Charge (a.u.)
  ----------------------------------------
      1 C                    -0.074477
      2 C                    -0.322621
      3 C                    -0.030309
      4 H                     0.177892
      5 C                     0.069421
      6 S                    -0.177796
      7 C                    -0.287858
      8 H                     0.115059
      9 H                     0.112529
     10 H                     0.109903
     11 C                    -0.027893
     12 C                    -0.279064
     13 C                     0.031384
     14 H                     0.183001
     15 C                    -0.260743
     16 S                     0.008256
     17 C                    -0.271112
     18 H                     0.102573
     19 H                     0.108510
     20 H                     0.107520
     21 H                     0.195998
     22 H                     0.110389
     23 H                     0.113358
     24 H                     0.186080
  ----------------------------------------
  Sum of atomic charges =     0.000000

                    Cartesian Multipole Moments
 -----------------------------------------------------------------
    Charge (ESU x 10^10)
                -0.0000
    Dipole Moment (Debye)
         X       2.6450      Y      -0.0476      Z       0.0237
       Tot       2.6456
    Quadrupole Moments (Debye-Ang)
        XX     -91.2925     XY      -0.8677     YY     -74.5818
        XZ       0.2271     YZ       2.8866     ZZ     -85.4758

 Total job time:  649.10s(wall), 646.63s(cpu)
        *  Thank you very much for using Q-Chem.  Have a nice day.  *
