 Q-Chem 5.4, Q-Chem, Inc., Pleasanton, CA (2021)
 Q-Chem 5.4.0 for Intel X86 EM64T Linux

User input:
--------------------------------------------------------------
$molecule
0 1
C	0.000713	-3.866725	-0.775127
C	0.000302	-3.703963	0.612565
C	-0.000067	-2.357056	1.066639
H	0.000470	-4.561092	1.302900
C	-0.000000	-1.440664	-0.000000
S	-0.000009	-2.286957	-1.544483
C	-0.000295	-1.978743	2.521872
H	-0.000221	-2.878678	3.166949
H	-0.892850	-1.376015	2.790821
H	0.892005	-1.375728	2.791023
C	0.000000	0.000000	0.000000
C	0.075300	0.860311	1.099446
C	0.195935	2.238951	0.776721
H	0.043151	0.492916	2.136088
C	0.215188	2.458766	-0.612546
S	0.082160	0.938811	-1.486809
C	0.290762	3.322559	1.814609
H	0.253664	2.898542	2.836676
H	-0.541206	4.052140	1.726239
H	1.236797	3.896558	1.726228
H	0.297938	3.404370	-1.161575
H	-0.896681	-4.392713	-1.119411
H	0.898372	-4.392347	-1.119277
H	1.080000	-1.440391	0.000115
$end

$rem
JOBTYPE		SP
EXCHANGE	HF
CORRELATION	pRIMP2
BASIS		cc-pvtz
METHOD		rimp2
AUX_BASIS	rimp2-cc-pvtz
SOLVENT_METHOD	PCM
PURECART	11111
SYMMETRY	false
MEM_TOTAL	110000
SCF_CONVERGENCE = 6
THRESH=10
$end

$solvent
dielectric 4.90
$end
--------------------------------------------------------------

             Standard Nuclear Orientation (Angstroms)
    I     Atom           X                Y                Z
 ----------------------------------------------------------------
    1      C       0.0007130000    -3.8667250000    -0.7751270000
    2      C       0.0003020000    -3.7039630000     0.6125650000
    3      C      -0.0000670000    -2.3570560000     1.0666390000
    4      H       0.0004700000    -4.5610920000     1.3029000000
    5      C       0.0000000000    -1.4406640000     0.0000000000
    6      S      -0.0000090000    -2.2869570000    -1.5444830000
    7      C      -0.0002950000    -1.9787430000     2.5218720000
    8      H      -0.0002210000    -2.8786780000     3.1669490000
    9      H      -0.8928500000    -1.3760150000     2.7908210000
   10      H       0.8920050000    -1.3757280000     2.7910230000
   11      C       0.0000000000     0.0000000000     0.0000000000
   12      C       0.0753000000     0.8603110000     1.0994460000
   13      C       0.1959350000     2.2389510000     0.7767210000
   14      H       0.0431510000     0.4929160000     2.1360880000
   15      C       0.2151880000     2.4587660000    -0.6125460000
   16      S       0.0821600000     0.9388110000    -1.4868090000
   17      C       0.2907620000     3.3225590000     1.8146090000
   18      H       0.2536640000     2.8985420000     2.8366760000
   19      H      -0.5412060000     4.0521400000     1.7262390000
   20      H       1.2367970000     3.8965580000     1.7262280000
   21      H       0.2979380000     3.4043700000    -1.1615750000
   22      H      -0.8966810000    -4.3927130000    -1.1194110000
   23      H       0.8983720000    -4.3923470000    -1.1192770000
   24      H       1.0800000000    -1.4403910000     0.0001150000
 ----------------------------------------------------------------

   10   -1180.7576357596      5.08e-07  Convergence criterion met
 Total energy in the final basis set =    -1180.7576357596
        RIMP2         total energy =     -1182.7630804953 a.u.

                    Orbital Energies (a.u.)
 --------------------------------------------------------------

 Alpha MOs
 -- Occupied --
-91.9841 -91.9464 -11.2913 -11.2670 -11.2631 -11.2523 -11.2496 -11.2451
-11.2346 -11.2279 -11.2267 -11.2247  -8.9837  -8.9512  -6.6647  -6.6641
 -6.6635  -6.6326  -6.6316  -6.6303  -1.2033  -1.1521  -1.0609  -1.0327
 -1.0011  -0.9615  -0.9169  -0.8994  -0.8187  -0.7639  -0.7277  -0.7055
 -0.6586  -0.6493  -0.6106  -0.5946  -0.5852  -0.5688  -0.5605  -0.5518
 -0.5459  -0.5364  -0.5243  -0.5010  -0.4869  -0.4825  -0.4699  -0.4430
 -0.3617  -0.3441  -0.3241  -0.2640

          Ground-State Mulliken Net Atomic Charges

     Atom                 Charge (a.u.)
  ----------------------------------------
      1 C                    -0.073047
      2 C                    -0.308063
      3 C                    -0.063094
      4 H                     0.179381
      5 C                     0.133866
      6 S                    -0.180087
      7 C                    -0.305439
      8 H                     0.123471
      9 H                     0.111320
     10 H                     0.105730
     11 C                    -0.046659
     12 C                    -0.278994
     13 C                     0.037503
     14 H                     0.189049
     15 C                    -0.289158
     16 S                     0.004903
     17 C                    -0.272910
     18 H                     0.100343
     19 H                     0.108379
     20 H                     0.108568
     21 H                     0.196836
     22 H                     0.113687
     23 H                     0.112143
     24 H                     0.192271
  ----------------------------------------
  Sum of atomic charges =     0.000000

                    Cartesian Multipole Moments
 -----------------------------------------------------------------
    Charge (ESU x 10^10)
                -0.0000
    Dipole Moment (Debye)
         X       1.0019      Y      -0.6545      Z       3.7478
       Tot       3.9342
    Quadrupole Moments (Debye-Ang)
        XX     -91.6956     XY      -0.6524     YY     -72.6904
        XZ      -0.1421     YZ      -2.3543     ZZ     -85.7098

 Total job time:  666.93s(wall), 663.87s(cpu)
        *  Thank you very much for using Q-Chem.  Have a nice day.  *
