 Q-Chem 5.4, Q-Chem, Inc., Pleasanton, CA (2021)
 Q-Chem 5.4.0 for Intel X86 EM64T Linux

User input:
--------------------------------------------------------------
$molecule
0 1
C	0.265779	-3.866725	-0.728138
C	-0.209225	-3.703963	0.575726
C	-0.364875	-2.357056	1.002290
H	-0.445176	-4.561092	1.224486
C	0.000000	-1.440664	0.000000
S	0.528236	-2.286957	-1.451343
C	-0.862808	-1.978743	2.369683
H	-1.083368	-2.878678	2.975883
H	-1.793522	-1.376015	2.317142
H	-0.116375	-1.375728	2.927787
C	0.000000	0.000000	0.000000
C	0.223548	0.834165	1.099446
C	0.581748	2.170912	0.776721
H	0.128089	0.477934	2.136088
C	0.638880	2.384045	-0.612546
S	0.243934	0.910282	-1.486809
C	0.863301	3.221592	1.814609
H	0.753137	2.810458	2.836676
H	0.170663	4.084559	1.726239
H	1.894637	3.622593	1.726228
H	0.884575	3.300913	-1.161575
H	-0.459743	-4.392713	-1.358585
H	1.227009	-4.392347	-0.744515
H	1.014829	-1.440391	0.369490
$end

$rem
JOBTYPE		SP
EXCHANGE	HF
CORRELATION	pRIMP2
BASIS		cc-pvtz
METHOD		rimp2
AUX_BASIS	rimp2-cc-pvtz
SOLVENT_METHOD	PCM
PURECART	11111
SYMMETRY	false
MEM_TOTAL	110000
SCF_CONVERGENCE = 6
THRESH=10
$end

$solvent
dielectric 4.90
$end
--------------------------------------------------------------

             Standard Nuclear Orientation (Angstroms)
    I     Atom           X                Y                Z
 ----------------------------------------------------------------
    1      C       0.2657790000    -3.8667250000    -0.7281380000
    2      C      -0.2092250000    -3.7039630000     0.5757260000
    3      C      -0.3648750000    -2.3570560000     1.0022900000
    4      H      -0.4451760000    -4.5610920000     1.2244860000
    5      C       0.0000000000    -1.4406640000     0.0000000000
    6      S       0.5282360000    -2.2869570000    -1.4513430000
    7      C      -0.8628080000    -1.9787430000     2.3696830000
    8      H      -1.0833680000    -2.8786780000     2.9758830000
    9      H      -1.7935220000    -1.3760150000     2.3171420000
   10      H      -0.1163750000    -1.3757280000     2.9277870000
   11      C       0.0000000000     0.0000000000     0.0000000000
   12      C       0.2235480000     0.8341650000     1.0994460000
   13      C       0.5817480000     2.1709120000     0.7767210000
   14      H       0.1280890000     0.4779340000     2.1360880000
   15      C       0.6388800000     2.3840450000    -0.6125460000
   16      S       0.2439340000     0.9102820000    -1.4868090000
   17      C       0.8633010000     3.2215920000     1.8146090000
   18      H       0.7531370000     2.8104580000     2.8366760000
   19      H       0.1706630000     4.0845590000     1.7262390000
   20      H       1.8946370000     3.6225930000     1.7262280000
   21      H       0.8845750000     3.3009130000    -1.1615750000
   22      H      -0.4597430000    -4.3927130000    -1.3585850000
   23      H       1.2270090000    -4.3923470000    -0.7445150000
   24      H       1.0148290000    -1.4403910000     0.3694900000
 ----------------------------------------------------------------

   10   -1180.7539692312      4.93e-07  Convergence criterion met
 Total energy in the final basis set =    -1180.7539692312
        RIMP2         total energy =     -1182.7607340578 a.u.

                    Orbital Energies (a.u.)
 --------------------------------------------------------------

 Alpha MOs
 -- Occupied --
-91.9846 -91.9454 -11.2901 -11.2657 -11.2612 -11.2535 -11.2503 -11.2437
-11.2342 -11.2287 -11.2282 -11.2235  -8.9841  -8.9501  -6.6651  -6.6645
 -6.6639  -6.6315  -6.6305  -6.6292  -1.2028  -1.1523  -1.0604  -1.0318
 -1.0014  -0.9612  -0.9154  -0.8997  -0.8182  -0.7628  -0.7261  -0.7056
 -0.6611  -0.6484  -0.6108  -0.5929  -0.5861  -0.5693  -0.5596  -0.5539
 -0.5436  -0.5351  -0.5215  -0.5026  -0.4872  -0.4820  -0.4693  -0.4426
 -0.3602  -0.3442  -0.3233  -0.2640

          Ground-State Mulliken Net Atomic Charges

     Atom                 Charge (a.u.)
  ----------------------------------------
      1 C                    -0.076405
      2 C                    -0.308829
      3 C                    -0.062828
      4 H                     0.177933
      5 C                     0.105366
      6 S                    -0.181021
      7 C                    -0.296788
      8 H                     0.120543
      9 H                     0.117744
     10 H                     0.100464
     11 C                    -0.024509
     12 C                    -0.284938
     13 C                     0.039162
     14 H                     0.184589
     15 C                    -0.281118
     16 S                     0.009150
     17 C                    -0.272330
     18 H                     0.100541
     19 H                     0.108593
     20 H                     0.108347
     21 H                     0.196661
     22 H                     0.111697
     23 H                     0.112793
     24 H                     0.195182
  ----------------------------------------
  Sum of atomic charges =     0.000000

                    Cartesian Multipole Moments
 -----------------------------------------------------------------
    Charge (ESU x 10^10)
                -0.0000
    Dipole Moment (Debye)
         X       0.3511      Y      -0.4869      Z       3.8670
       Tot       3.9133
    Quadrupole Moments (Debye-Ang)
        XX     -90.8279     XY       2.2059     YY     -73.7309
        XZ      -0.0042     YZ      -2.7576     ZZ     -85.9264

 Total job time:  655.16s(wall), 652.96s(cpu)
        *  Thank you very much for using Q-Chem.  Have a nice day.  *
