 Q-Chem 5.4, Q-Chem, Inc., Pleasanton, CA (2021)
 Q-Chem 5.4.0 for Intel X86 EM64T Linux

User input:
--------------------------------------------------------------
$molecule
0 1
C	-0.133897	-3.866725	-0.763475
C	0.106669	-3.703963	0.603206
C	0.185154	-2.357056	1.050446
H	0.226709	-4.561092	1.283024
C	-0.000000	-1.440664	-0.000000
S	-0.268206	-2.286957	-1.521018
C	0.437628	-1.978743	2.483610
H	0.549717	-2.878678	3.118875
H	-0.394664	-1.376015	2.903464
H	1.363110	-1.375728	2.593726
C	0.000000	0.000000	0.000000
C	0.365003	0.782674	1.099446
C	0.949885	2.036912	0.776721
H	0.209135	0.448431	2.136088
C	1.043159	2.236886	-0.612546
S	0.398297	0.854094	-1.486809
C	1.409609	3.022738	1.814609
H	1.229726	2.636980	2.836676
H	0.877346	3.992870	1.726239
H	2.494910	3.238558	1.726228
H	1.444334	3.097160	-1.161575
H	-1.077442	-4.392713	-0.946698
H	0.690363	-4.392347	-1.258274
H	1.063612	-1.440391	-0.187427
$end

$rem
JOBTYPE		SP
EXCHANGE	HF
CORRELATION	pRIMP2
BASIS		cc-pvtz
METHOD		rimp2
AUX_BASIS	rimp2-cc-pvtz
SOLVENT_METHOD	PCM
PURECART	11111
SYMMETRY	false
MEM_TOTAL	110000
SCF_CONVERGENCE = 6
THRESH=10
$end

$solvent
dielectric 4.90
$end
--------------------------------------------------------------

             Standard Nuclear Orientation (Angstroms)
    I     Atom           X                Y                Z
 ----------------------------------------------------------------
    1      C      -0.1338970000    -3.8667250000    -0.7634750000
    2      C       0.1066690000    -3.7039630000     0.6032060000
    3      C       0.1851540000    -2.3570560000     1.0504460000
    4      H       0.2267090000    -4.5610920000     1.2830240000
    5      C       0.0000000000    -1.4406640000     0.0000000000
    6      S      -0.2682060000    -2.2869570000    -1.5210180000
    7      C       0.4376280000    -1.9787430000     2.4836100000
    8      H       0.5497170000    -2.8786780000     3.1188750000
    9      H      -0.3946640000    -1.3760150000     2.9034640000
   10      H       1.3631100000    -1.3757280000     2.5937260000
   11      C       0.0000000000     0.0000000000     0.0000000000
   12      C       0.3650030000     0.7826740000     1.0994460000
   13      C       0.9498850000     2.0369120000     0.7767210000
   14      H       0.2091350000     0.4484310000     2.1360880000
   15      C       1.0431590000     2.2368860000    -0.6125460000
   16      S       0.3982970000     0.8540940000    -1.4868090000
   17      C       1.4096090000     3.0227380000     1.8146090000
   18      H       1.2297260000     2.6369800000     2.8366760000
   19      H       0.8773460000     3.9928700000     1.7262390000
   20      H       2.4949100000     3.2385580000     1.7262280000
   21      H       1.4443340000     3.0971600000    -1.1615750000
   22      H      -1.0774420000    -4.3927130000    -0.9466980000
   23      H       0.6903630000    -4.3923470000    -1.2582740000
   24      H       1.0636120000    -1.4403910000    -0.1874270000
 ----------------------------------------------------------------

   10   -1180.7468170211      4.93e-07  Convergence criterion met
 Total energy in the final basis set =    -1180.7468170211
        RIMP2         total energy =     -1182.7556825855 a.u.

                    Orbital Energies (a.u.)
 --------------------------------------------------------------

 Alpha MOs
 -- Occupied --
-91.9822 -91.9440 -11.2874 -11.2657 -11.2624 -11.2566 -11.2501 -11.2441
-11.2339 -11.2295 -11.2284 -11.2239  -8.9822  -8.9489  -6.6631  -6.6625
 -6.6619  -6.6303  -6.6292  -6.6280  -1.2040  -1.1525  -1.0608  -1.0325
 -0.9999  -0.9621  -0.9161  -0.8997  -0.8162  -0.7634  -0.7306  -0.7052
 -0.6574  -0.6481  -0.6109  -0.5944  -0.5840  -0.5697  -0.5606  -0.5519
 -0.5469  -0.5365  -0.5246  -0.5032  -0.4828  -0.4811  -0.4673  -0.4425
 -0.3605  -0.3434  -0.3245  -0.2638

          Ground-State Mulliken Net Atomic Charges

     Atom                 Charge (a.u.)
  ----------------------------------------
      1 C                    -0.078108
      2 C                    -0.302916
      3 C                    -0.072969
      4 H                     0.179181
      5 C                     0.118904
      6 S                    -0.181879
      7 C                    -0.301440
      8 H                     0.120515
      9 H                     0.107601
     10 H                     0.109043
     11 C                     0.006189
     12 C                    -0.337390
     13 C                     0.062851
     14 H                     0.189933
     15 C                    -0.286228
     16 S                     0.007295
     17 C                    -0.270852
     18 H                     0.100925
     19 H                     0.108980
     20 H                     0.108191
     21 H                     0.196696
     22 H                     0.113645
     23 H                     0.112013
     24 H                     0.189822
  ----------------------------------------
  Sum of atomic charges =     0.000000

                    Cartesian Multipole Moments
 -----------------------------------------------------------------
    Charge (ESU x 10^10)
                -0.0000
    Dipole Moment (Debye)
         X       1.9084      Y      -0.4958      Z       3.6668
       Tot       4.1633
    Quadrupole Moments (Debye-Ang)
        XX     -90.0027     XY       1.8023     YY     -74.5791
        XZ       0.3015     YZ      -2.2271     ZZ     -85.7071

 Total job time:  669.40s(wall), 666.64s(cpu)
        *  Thank you very much for using Q-Chem.  Have a nice day.  *
