 Q-Chem 5.4, Q-Chem, Inc., Pleasanton, CA (2021)
 Q-Chem 5.4.0 for Intel X86 EM64T Linux

User input:
--------------------------------------------------------------
$molecule
0 1
C	0.728625	-3.866725	-0.264439
C	-0.575519	-3.703963	0.209794
C	-1.002336	-2.357056	0.364749
H	-1.224165	-4.561092	0.446060
C	-0.000000	-1.440664	-0.000000
S	1.451336	-2.286957	-0.528253
C	-2.369885	-1.978743	0.862253
H	-2.976034	-2.878678	1.082953
H	-2.927887	-1.376015	0.115513
H	-2.317620	-1.375728	1.792797
C	0.000000	0.000000	0.000000
C	0.555137	0.661535	1.099446
C	1.444710	1.721658	0.776721
H	0.318072	0.379023	2.136088
C	1.586563	1.890676	-0.612546
S	0.605781	0.721904	-1.486809
C	2.143920	2.554907	1.814609
H	1.870325	2.228851	2.836676
H	1.880882	3.629742	1.726239
H	3.248098	2.482476	1.726228
H	2.196723	2.617806	-1.161575
H	0.745219	-4.392713	-1.225465
H	1.359038	-4.392347	0.461378
H	0.369273	-1.440391	1.014907
$end

$rem
JOBTYPE		SP
EXCHANGE	HF
CORRELATION	pRIMP2
BASIS		cc-pvtz
METHOD		rimp2
AUX_BASIS	rimp2-cc-pvtz
SOLVENT_METHOD	PCM
PURECART	11111
SYMMETRY	false
MEM_TOTAL	110000
SCF_CONVERGENCE = 6
THRESH=10
$end

$solvent
dielectric 4.90
$end
--------------------------------------------------------------

             Standard Nuclear Orientation (Angstroms)
    I     Atom           X                Y                Z
 ----------------------------------------------------------------
    1      C       0.7286250000    -3.8667250000    -0.2644390000
    2      C      -0.5755190000    -3.7039630000     0.2097940000
    3      C      -1.0023360000    -2.3570560000     0.3647490000
    4      H      -1.2241650000    -4.5610920000     0.4460600000
    5      C       0.0000000000    -1.4406640000     0.0000000000
    6      S       1.4513360000    -2.2869570000    -0.5282530000
    7      C      -2.3698850000    -1.9787430000     0.8622530000
    8      H      -2.9760340000    -2.8786780000     1.0829530000
    9      H      -2.9278870000    -1.3760150000     0.1155130000
   10      H      -2.3176200000    -1.3757280000     1.7927970000
   11      C       0.0000000000     0.0000000000     0.0000000000
   12      C       0.5551370000     0.6615350000     1.0994460000
   13      C       1.4447100000     1.7216580000     0.7767210000
   14      H       0.3180720000     0.3790230000     2.1360880000
   15      C       1.5865630000     1.8906760000    -0.6125460000
   16      S       0.6057810000     0.7219040000    -1.4868090000
   17      C       2.1439200000     2.5549070000     1.8146090000
   18      H       1.8703250000     2.2288510000     2.8366760000
   19      H       1.8808820000     3.6297420000     1.7262390000
   20      H       3.2480980000     2.4824760000     1.7262280000
   21      H       2.1967230000     2.6178060000    -1.1615750000
   22      H       0.7452190000    -4.3927130000    -1.2254650000
   23      H       1.3590380000    -4.3923470000     0.4613780000
   24      H       0.3692730000    -1.4403910000     1.0149070000
 ----------------------------------------------------------------

   10   -1180.7272167942      6.53e-07  Convergence criterion met
 Total energy in the final basis set =    -1180.7272167942
        RIMP2         total energy =     -1182.7401728055 a.u.

                    Orbital Energies (a.u.)
 --------------------------------------------------------------

 Alpha MOs
 -- Occupied --
-91.9801 -91.9395 -11.2726 -11.2701 -11.2576 -11.2512 -11.2500 -11.2485
-11.2382 -11.2306 -11.2297 -11.2133  -8.9803  -8.9442  -6.6612  -6.6605
 -6.6601  -6.6255  -6.6245  -6.6232  -1.2003  -1.1531  -1.0574  -1.0264
 -1.0037  -0.9595  -0.9092  -0.9017  -0.8134  -0.7567  -0.7390  -0.6995
 -0.6599  -0.6393  -0.6099  -0.5883  -0.5822  -0.5709  -0.5641  -0.5506
 -0.5400  -0.5312  -0.5089  -0.5068  -0.4920  -0.4720  -0.4605  -0.4450
 -0.3575  -0.3361  -0.3158  -0.2725

          Ground-State Mulliken Net Atomic Charges

     Atom                 Charge (a.u.)
  ----------------------------------------
      1 C                    -0.077400
      2 C                    -0.335967
      3 C                    -0.040020
      4 H                     0.173309
      5 C                     0.051574
      6 S                    -0.170407
      7 C                    -0.272193
      8 H                     0.113313
      9 H                     0.107619
     10 H                     0.099177
     11 C                    -0.085625
     12 C                    -0.201074
     13 C                     0.013166
     14 H                     0.181146
     15 C                    -0.213621
     16 S                     0.014341
     17 C                    -0.269126
     18 H                     0.101652
     19 H                     0.107720
     20 H                     0.107802
     21 H                     0.197760
     22 H                     0.109655
     23 H                     0.108395
     24 H                     0.178804
  ----------------------------------------
  Sum of atomic charges =     0.000000

                    Cartesian Multipole Moments
 -----------------------------------------------------------------
    Charge (ESU x 10^10)
                -0.0000
    Dipole Moment (Debye)
         X      -0.4411      Y       0.7976      Z       3.0168
       Tot       3.1515
    Quadrupole Moments (Debye-Ang)
        XX     -86.8371     XY       8.2693     YY     -79.5556
        XZ       0.7774     YZ      -1.5959     ZZ     -85.7697

 Total job time:  658.82s(wall), 654.92s(cpu)
        *  Thank you very much for using Q-Chem.  Have a nice day.  *
