 Q-Chem 5.4, Q-Chem, Inc., Pleasanton, CA (2021)
 Q-Chem 5.4.0 for Intel X86 EM64T Linux

User input:
--------------------------------------------------------------
$molecule
0 1
C	0.594240	-3.866725	-0.497696
C	-0.469057	-3.703963	0.393981
C	-0.817136	-2.357056	0.685571
H	-0.997777	-4.561092	0.837848
C	-0.000000	-1.440664	-0.000000
S	1.183137	-2.286957	-0.992782
C	-1.932056	-1.978743	1.620802
H	-2.426166	-2.878678	2.035506
H	-2.711806	-1.376015	1.109943
H	-1.564678	-1.375728	2.477350
C	0.000000	0.000000	0.000000
C	0.075300	0.860311	1.099446
C	0.195935	2.238951	0.776721
H	0.043151	0.492916	2.136088
C	0.215188	2.458766	-0.612546
S	0.082160	0.938811	-1.486809
C	0.290762	3.322559	1.814609
H	0.253664	2.898542	2.836676
H	-0.541206	4.052140	1.726239
H	1.236797	3.896558	1.726228
H	0.297938	3.404370	-1.161575
H	0.281143	-4.392713	-1.406441
H	1.434879	-4.392347	-0.031265
H	-0.694122	-1.440937	-0.827402
$end

$rem
JOBTYPE		SP
EXCHANGE	HF
CORRELATION	pRIMP2
BASIS		cc-pvtz
METHOD		rimp2
AUX_BASIS	rimp2-cc-pvtz
SOLVENT_METHOD	PCM
PURECART	11111
SYMMETRY	false
MEM_TOTAL	110000
SCF_CONVERGENCE = 6
THRESH=10
$end

$solvent
dielectric 4.90
$end
--------------------------------------------------------------

             Standard Nuclear Orientation (Angstroms)
    I     Atom           X                Y                Z
 ----------------------------------------------------------------
    1      C       0.5942400000    -3.8667250000    -0.4976960000
    2      C      -0.4690570000    -3.7039630000     0.3939810000
    3      C      -0.8171360000    -2.3570560000     0.6855710000
    4      H      -0.9977770000    -4.5610920000     0.8378480000
    5      C       0.0000000000    -1.4406640000     0.0000000000
    6      S       1.1831370000    -2.2869570000    -0.9927820000
    7      C      -1.9320560000    -1.9787430000     1.6208020000
    8      H      -2.4261660000    -2.8786780000     2.0355060000
    9      H      -2.7118060000    -1.3760150000     1.1099430000
   10      H      -1.5646780000    -1.3757280000     2.4773500000
   11      C       0.0000000000     0.0000000000     0.0000000000
   12      C       0.0753000000     0.8603110000     1.0994460000
   13      C       0.1959350000     2.2389510000     0.7767210000
   14      H       0.0431510000     0.4929160000     2.1360880000
   15      C       0.2151880000     2.4587660000    -0.6125460000
   16      S       0.0821600000     0.9388110000    -1.4868090000
   17      C       0.2907620000     3.3225590000     1.8146090000
   18      H       0.2536640000     2.8985420000     2.8366760000
   19      H      -0.5412060000     4.0521400000     1.7262390000
   20      H       1.2367970000     3.8965580000     1.7262280000
   21      H       0.2979380000     3.4043700000    -1.1615750000
   22      H       0.2811430000    -4.3927130000    -1.4064410000
   23      H       1.4348790000    -4.3923470000    -0.0312650000
   24      H      -0.6941220000    -1.4409370000    -0.8274020000
 ----------------------------------------------------------------

   10   -1180.7594876589      5.15e-07  Convergence criterion met
 Total energy in the final basis set =    -1180.7594876589
        RIMP2         total energy =     -1182.7636883430 a.u.

                    Orbital Energies (a.u.)
 --------------------------------------------------------------

 Alpha MOs
 -- Occupied --
-91.9846 -91.9429 -11.2831 -11.2643 -11.2615 -11.2571 -11.2504 -11.2420
-11.2357 -11.2324 -11.2285 -11.2208  -8.9844  -8.9477  -6.6653  -6.6648
 -6.6641  -6.6290  -6.6280  -6.6267  -1.1996  -1.1532  -1.0591  -1.0288
 -1.0012  -0.9632  -0.9133  -0.9002  -0.8155  -0.7606  -0.7410  -0.7027
 -0.6544  -0.6383  -0.6105  -0.5900  -0.5800  -0.5693  -0.5667  -0.5544
 -0.5444  -0.5320  -0.5158  -0.5054  -0.4899  -0.4815  -0.4643  -0.4490
 -0.3564  -0.3424  -0.3202  -0.2722

          Ground-State Mulliken Net Atomic Charges

     Atom                 Charge (a.u.)
  ----------------------------------------
      1 C                    -0.076745
      2 C                    -0.326902
      3 C                    -0.025574
      4 H                     0.177320
      5 C                     0.117353
      6 S                    -0.175560
      7 C                    -0.271376
      8 H                     0.115021
      9 H                     0.105798
     10 H                     0.103487
     11 C                    -0.113846
     12 C                    -0.233042
     13 C                     0.016300
     14 H                     0.192334
     15 C                    -0.245849
     16 S                     0.007777
     17 C                    -0.273751
     18 H                     0.101789
     19 H                     0.107809
     20 H                     0.108961
     21 H                     0.197654
     22 H                     0.110899
     23 H                     0.114551
     24 H                     0.165593
  ----------------------------------------
  Sum of atomic charges =     0.000000

                    Cartesian Multipole Moments
 -----------------------------------------------------------------
    Charge (ESU x 10^10)
                -0.0000
    Dipole Moment (Debye)
         X      -2.2135      Y       0.2901      Z       2.3703
       Tot       3.2561
    Quadrupole Moments (Debye-Ang)
        XX     -91.9394     XY       4.5180     YY     -73.3124
        XZ      -0.0707     YZ      -0.1941     ZZ     -85.6633

 Total job time:  645.98s(wall), 642.36s(cpu)
        *  Thank you very much for using Q-Chem.  Have a nice day.  *
