 Q-Chem 5.4, Q-Chem, Inc., Pleasanton, CA (2021)
 Q-Chem 5.4.0 for Intel X86 EM64T Linux

User input:
--------------------------------------------------------------
$molecule
0 1
C	-0.388181	-3.866725	0.670924
C	0.306020	-3.703963	-0.530648
C	0.533378	-2.357056	-0.923703
H	0.651043	-4.561092	-1.128579
C	0.000000	-1.440664	0.000000
S	-0.772234	-2.286957	1.337567
C	1.261192	-1.978743	-2.183857
H	1.583666	-2.878678	-2.742548
H	2.168641	-1.376015	-1.970497
H	0.623012	-1.375728	-2.863099
C	0.000000	0.000000	0.000000
C	0.661577	0.555087	1.099446
C	1.721724	1.444630	0.776721
H	0.379056	0.318032	2.136088
C	1.890772	1.586449	-0.612546
S	0.721935	0.605744	-1.486809
C	2.555004	2.143805	1.814609
H	2.228946	1.870211	2.836676
H	2.482605	3.247987	1.726239
H	3.629830	1.880735	1.726228
H	2.617927	2.196579	-1.161575
H	0.216843	-4.392713	1.417779
H	-1.337652	-4.392347	0.520136
H	-0.935250	-1.440391	-0.540100
$end

$rem
JOBTYPE		SP
EXCHANGE	HF
CORRELATION	pRIMP2
BASIS		cc-pvtz
METHOD		rimp2
AUX_BASIS	rimp2-cc-pvtz
SOLVENT_METHOD	PCM
PURECART	11111
SYMMETRY	false
MEM_TOTAL	110000
SCF_CONVERGENCE = 6
THRESH=10
$end

$solvent
dielectric 4.90
$end
--------------------------------------------------------------

             Standard Nuclear Orientation (Angstroms)
    I     Atom           X                Y                Z
 ----------------------------------------------------------------
    1      C      -0.3881810000    -3.8667250000     0.6709240000
    2      C       0.3060200000    -3.7039630000    -0.5306480000
    3      C       0.5333780000    -2.3570560000    -0.9237030000
    4      H       0.6510430000    -4.5610920000    -1.1285790000
    5      C       0.0000000000    -1.4406640000     0.0000000000
    6      S      -0.7722340000    -2.2869570000     1.3375670000
    7      C       1.2611920000    -1.9787430000    -2.1838570000
    8      H       1.5836660000    -2.8786780000    -2.7425480000
    9      H       2.1686410000    -1.3760150000    -1.9704970000
   10      H       0.6230120000    -1.3757280000    -2.8630990000
   11      C       0.0000000000     0.0000000000     0.0000000000
   12      C       0.6615770000     0.5550870000     1.0994460000
   13      C       1.7217240000     1.4446300000     0.7767210000
   14      H       0.3790560000     0.3180320000     2.1360880000
   15      C       1.8907720000     1.5864490000    -0.6125460000
   16      S       0.7219350000     0.6057440000    -1.4868090000
   17      C       2.5550040000     2.1438050000     1.8146090000
   18      H       2.2289460000     1.8702110000     2.8366760000
   19      H       2.4826050000     3.2479870000     1.7262390000
   20      H       3.6298300000     1.8807350000     1.7262280000
   21      H       2.6179270000     2.1965790000    -1.1615750000
   22      H       0.2168430000    -4.3927130000     1.4177790000
   23      H      -1.3376520000    -4.3923470000     0.5201360000
   24      H      -0.9352500000    -1.4403910000    -0.5401000000
 ----------------------------------------------------------------

   10   -1180.6809600522      9.84e-07  Convergence criterion met
 Total energy in the final basis set =    -1180.6809600522
        RIMP2         total energy =     -1182.7067616893 a.u.

                    Orbital Energies (a.u.)
 --------------------------------------------------------------

 Alpha MOs
 -- Occupied --
-91.9770 -91.9392 -11.2765 -11.2622 -11.2603 -11.2503 -11.2502 -11.2467
-11.2391 -11.2286 -11.2269 -11.2141  -8.9786  -8.9438  -6.6593  -6.6586
 -6.6582  -6.6252  -6.6242  -6.6230  -1.2020  -1.1527  -1.0590  -1.0255
 -1.0056  -0.9588  -0.9116  -0.9042  -0.8052  -0.7720  -0.7253  -0.7089
 -0.6504  -0.6380  -0.6127  -0.5945  -0.5825  -0.5729  -0.5683  -0.5485
 -0.5408  -0.5283  -0.5197  -0.5172  -0.4880  -0.4565  -0.4501  -0.4385
 -0.3530  -0.3344  -0.3231  -0.2609

          Ground-State Mulliken Net Atomic Charges

     Atom                 Charge (a.u.)
  ----------------------------------------
      1 C                    -0.067122
      2 C                    -0.341791
      3 C                    -0.048816
      4 H                     0.176288
      5 C                     0.058613
      6 S                    -0.203261
      7 C                    -0.266185
      8 H                     0.108097
      9 H                     0.114355
     10 H                     0.103367
     11 C                    -0.130513
     12 C                    -0.150841
     13 C                    -0.004322
     14 H                     0.189509
     15 C                    -0.208118
     16 S                     0.020083
     17 C                    -0.268994
     18 H                     0.102938
     19 H                     0.106994
     20 H                     0.104954
     21 H                     0.200311
     22 H                     0.109855
     23 H                     0.107670
     24 H                     0.186928
  ----------------------------------------
  Sum of atomic charges =     0.000000

                    Cartesian Multipole Moments
 -----------------------------------------------------------------
    Charge (ESU x 10^10)
                -0.0000
    Dipole Moment (Debye)
         X       2.6551      Y       0.6154      Z      -1.2649
       Tot       3.0047
    Quadrupole Moments (Debye-Ang)
        XX     -84.6576     XY       5.1350     YY     -81.9561
        XZ      -0.0140     YZ       4.1842     ZZ     -85.4152

 Total job time:  689.89s(wall), 685.79s(cpu)
        *  Thank you very much for using Q-Chem.  Have a nice day.  *
