 Q-Chem 5.4, Q-Chem, Inc., Pleasanton, CA (2021)
 Q-Chem 5.4.0 for Intel X86 EM64T Linux

User input:
--------------------------------------------------------------
$molecule
0 1
C	0.670748	-3.808105	0.775127
C	0.642889	-3.647744	-0.612565
C	0.409365	-2.321236	-1.066639
H	0.791563	-4.491881	-1.302900
C	0.250169	-1.418777	0.000000
S	0.397135	-2.252211	1.544483
C	0.343896	-1.948630	-2.521872
H	0.500095	-2.834906	-3.166949
H	1.118228	-1.200068	-2.790821
H	-0.639561	-1.509723	-2.791023
C	0.000000	0.000000	0.000000
C	0.555137	0.661535	1.099446
C	1.444710	1.721658	0.776721
H	0.318072	0.379023	2.136088
C	1.586563	1.890676	-0.612546
S	0.605781	0.721904	-1.486809
C	2.143920	2.554907	1.814609
H	1.870325	2.228851	2.836676
H	1.880882	3.629742	1.726239
H	3.248098	2.482476	1.726228
H	2.196723	2.617806	-1.161575
H	1.645845	-4.170271	1.119411
H	-0.122001	-4.481618	1.119277
H	1.313809	-1.231506	0.000115
$end

$rem
JOBTYPE		SP
EXCHANGE	HF
CORRELATION	pRIMP2
BASIS		cc-pvtz
METHOD		rimp2
AUX_BASIS	rimp2-cc-pvtz
SOLVENT_METHOD	PCM
PURECART	11111
SYMMETRY	false
MEM_TOTAL	110000
SCF_CONVERGENCE = 6
THRESH=10
$end

$solvent
dielectric 4.90
$end
--------------------------------------------------------------

             Standard Nuclear Orientation (Angstroms)
    I     Atom           X                Y                Z
 ----------------------------------------------------------------
    1      C       0.6707480000    -3.8081050000     0.7751270000
    2      C       0.6428890000    -3.6477440000    -0.6125650000
    3      C       0.4093650000    -2.3212360000    -1.0666390000
    4      H       0.7915630000    -4.4918810000    -1.3029000000
    5      C       0.2501690000    -1.4187770000     0.0000000000
    6      S       0.3971350000    -2.2522110000     1.5444830000
    7      C       0.3438960000    -1.9486300000    -2.5218720000
    8      H       0.5000950000    -2.8349060000    -3.1669490000
    9      H       1.1182280000    -1.2000680000    -2.7908210000
   10      H      -0.6395610000    -1.5097230000    -2.7910230000
   11      C       0.0000000000     0.0000000000     0.0000000000
   12      C       0.5551370000     0.6615350000     1.0994460000
   13      C       1.4447100000     1.7216580000     0.7767210000
   14      H       0.3180720000     0.3790230000     2.1360880000
   15      C       1.5865630000     1.8906760000    -0.6125460000
   16      S       0.6057810000     0.7219040000    -1.4868090000
   17      C       2.1439200000     2.5549070000     1.8146090000
   18      H       1.8703250000     2.2288510000     2.8366760000
   19      H       1.8808820000     3.6297420000     1.7262390000
   20      H       3.2480980000     2.4824760000     1.7262280000
   21      H       2.1967230000     2.6178060000    -1.1615750000
   22      H       1.6458450000    -4.1702710000     1.1194110000
   23      H      -0.1220010000    -4.4816180000     1.1192770000
   24      H       1.3138090000    -1.2315060000     0.0001150000
 ----------------------------------------------------------------

   10   -1180.7000948651      9.60e-07  Convergence criterion met
 Total energy in the final basis set =    -1180.7000948651
        RIMP2         total energy =     -1182.7225839977 a.u.

                    Orbital Energies (a.u.)
 --------------------------------------------------------------

 Alpha MOs
 -- Occupied --
-91.9765 -91.9418 -11.2740 -11.2710 -11.2604 -11.2586 -11.2523 -11.2415
-11.2407 -11.2290 -11.2278 -11.2183  -8.9781  -8.9465  -6.6588  -6.6581
 -6.6575  -6.6279  -6.6269  -6.6257  -1.2085  -1.1531  -1.0615  -1.0283
 -1.0066  -0.9552  -0.9138  -0.9045  -0.8078  -0.7745  -0.7209  -0.7024
 -0.6617  -0.6464  -0.6130  -0.5878  -0.5857  -0.5730  -0.5703  -0.5526
 -0.5412  -0.5353  -0.5174  -0.5158  -0.4889  -0.4648  -0.4528  -0.4376
 -0.3570  -0.3392  -0.3279  -0.2607

          Ground-State Mulliken Net Atomic Charges

     Atom                 Charge (a.u.)
  ----------------------------------------
      1 C                    -0.076338
      2 C                    -0.322761
      3 C                    -0.052917
      4 H                     0.176536
      5 C                     0.103211
      6 S                    -0.204735
      7 C                    -0.294487
      8 H                     0.112682
      9 H                     0.112155
     10 H                     0.115740
     11 C                    -0.054249
     12 C                    -0.238644
     13 C                     0.020920
     14 H                     0.182124
     15 C                    -0.240500
     16 S                     0.017566
     17 C                    -0.267372
     18 H                     0.103757
     19 H                     0.108326
     20 H                     0.106453
     21 H                     0.198621
     22 H                     0.110077
     23 H                     0.112735
     24 H                     0.171098
  ----------------------------------------
  Sum of atomic charges =     0.000000

                    Cartesian Multipole Moments
 -----------------------------------------------------------------
    Charge (ESU x 10^10)
                -0.0000
    Dipole Moment (Debye)
         X       2.4745      Y       0.4120      Z      -1.0423
       Tot       2.7165
    Quadrupole Moments (Debye-Ang)
        XX     -86.4792     XY       3.0601     YY     -79.0087
        XZ       0.1263     YZ       4.1091     ZZ     -85.2802

 Total job time:  696.44s(wall), 691.22s(cpu)
        *  Thank you very much for using Q-Chem.  Have a nice day.  *
