 Q-Chem 5.4, Q-Chem, Inc., Pleasanton, CA (2021)
 Q-Chem 5.4.0 for Intel X86 EM64T Linux

User input:
--------------------------------------------------------------
$molecule
0 1
C	-0.386946	-3.866725	-0.671636
C	0.306544	-3.703963	0.530345
C	0.533261	-2.357056	0.923770
H	0.651857	-4.561092	1.128109
C	0.000000	-1.440664	0.000000
S	-0.772250	-2.286957	-1.337557
C	1.260680	-1.978743	2.184153
H	1.583283	-2.878678	2.742769
H	0.622180	-1.376015	2.863347
H	2.168011	-1.375728	1.971094
C	0.000000	0.000000	0.000000
C	0.295399	0.811508	1.099446
C	0.768742	2.111949	0.776721
H	0.169256	0.464952	2.136088
C	0.844232	2.319291	-0.612546
S	0.322342	0.885558	-1.486809
C	1.140796	3.134091	1.814609
H	0.995218	2.734123	2.836676
H	0.526006	4.054142	1.726239
H	2.203157	3.443680	1.726228
H	1.168902	3.211257	-1.161575
H	-1.336254	-4.392713	-0.521098
H	0.218374	-4.392347	-1.418509
H	0.935365	-1.440391	-0.539900
$end

$rem
JOBTYPE		SP
EXCHANGE	HF
CORRELATION	pRIMP2
BASIS		cc-pvtz
METHOD		rimp2
AUX_BASIS	rimp2-cc-pvtz
SOLVENT_METHOD	PCM
PURECART	11111
SYMMETRY	false
MEM_TOTAL	110000
SCF_CONVERGENCE = 6
THRESH=10
$end

$solvent
dielectric 4.90
$end
--------------------------------------------------------------

   10   -1180.7520979809      5.00e-07  Convergence criterion met
 Total energy in the final basis set =    -1180.7520979809
        RIMP2         total energy =     -1182.7589367901 a.u.
 Total job time:  681.49s(wall), 678.31s(cpu)
        *  Thank you very much for using Q-Chem.  Have a nice day.  *
 Q-Chem 5.4, Q-Chem, Inc., Pleasanton, CA (2021)
 Q-Chem 5.4.0 for Intel X86 EM64T Linux

User input:
--------------------------------------------------------------
$molecule
0 1
C	-0.386946	-3.866725	-0.671636
C	0.306544	-3.703963	0.530345
C	0.533261	-2.357056	0.923770
H	0.651857	-4.561092	1.128109
C	0.000000	-1.440664	0.000000
S	-0.772250	-2.286957	-1.337557
C	1.260680	-1.978743	2.184153
H	1.583283	-2.878678	2.742769
H	0.622180	-1.376015	2.863347
H	2.168011	-1.375728	1.971094
C	0.000000	0.000000	0.000000
C	0.295399	0.811508	1.099446
C	0.768742	2.111949	0.776721
H	0.169256	0.464952	2.136088
C	0.844232	2.319291	-0.612546
S	0.322342	0.885558	-1.486809
C	1.140796	3.134091	1.814609
H	0.995218	2.734123	2.836676
H	0.526006	4.054142	1.726239
H	2.203157	3.443680	1.726228
H	1.168902	3.211257	-1.161575
H	-1.336254	-4.392713	-0.521098
H	0.218374	-4.392347	-1.418509
H	0.935365	-1.440391	-0.539900
$end

$rem
JOBTYPE		SP
EXCHANGE	HF
CORRELATION	pRIMP2
BASIS		cc-pvtz
METHOD		rimp2
AUX_BASIS	rimp2-cc-pvtz
SOLVENT_METHOD	PCM
PURECART	11111
SYMMETRY	false
MEM_TOTAL	110000
SCF_CONVERGENCE = 6
THRESH=10
$end

$solvent
dielectric 4.90
$end
--------------------------------------------------------------

             Standard Nuclear Orientation (Angstroms)
    I     Atom           X                Y                Z
 ----------------------------------------------------------------
    1      C      -0.3869460000    -3.8667250000    -0.6716360000
    2      C       0.3065440000    -3.7039630000     0.5303450000
    3      C       0.5332610000    -2.3570560000     0.9237700000
    4      H       0.6518570000    -4.5610920000     1.1281090000
    5      C       0.0000000000    -1.4406640000     0.0000000000
    6      S      -0.7722500000    -2.2869570000    -1.3375570000
    7      C       1.2606800000    -1.9787430000     2.1841530000
    8      H       1.5832830000    -2.8786780000     2.7427690000
    9      H       0.6221800000    -1.3760150000     2.8633470000
   10      H       2.1680110000    -1.3757280000     1.9710940000
   11      C       0.0000000000     0.0000000000     0.0000000000
   12      C       0.2953990000     0.8115080000     1.0994460000
   13      C       0.7687420000     2.1119490000     0.7767210000
   14      H       0.1692560000     0.4649520000     2.1360880000
   15      C       0.8442320000     2.3192910000    -0.6125460000
   16      S       0.3223420000     0.8855580000    -1.4868090000
   17      C       1.1407960000     3.1340910000     1.8146090000
   18      H       0.9952180000     2.7341230000     2.8366760000
   19      H       0.5260060000     4.0541420000     1.7262390000
   20      H       2.2031570000     3.4436800000     1.7262280000
   21      H       1.1689020000     3.2112570000    -1.1615750000
   22      H      -1.3362540000    -4.3927130000    -0.5210980000
   23      H       0.2183740000    -4.3923470000    -1.4185090000
   24      H       0.9353650000    -1.4403910000    -0.5399000000
 ----------------------------------------------------------------

   10   -1180.7520979809      5.00e-07  Convergence criterion met
 Total energy in the final basis set =    -1180.7520979809
        RIMP2         total energy =     -1182.7589367901 a.u.

                    Orbital Energies (a.u.)
 --------------------------------------------------------------

 Alpha MOs
 -- Occupied --
-91.9818 -91.9433 -11.2857 -11.2653 -11.2603 -11.2591 -11.2504 -11.2434
-11.2335 -11.2329 -11.2287 -11.2227  -8.9819  -8.9482  -6.6628  -6.6623
 -6.6616  -6.6296  -6.6286  -6.6273  -1.2024  -1.1530  -1.0604  -1.0308
 -1.0004  -0.9630  -0.9149  -0.9000  -0.8152  -0.7626  -0.7368  -0.7043
 -0.6547  -0.6442  -0.6108  -0.5930  -0.5815  -0.5699  -0.5646  -0.5527
 -0.5465  -0.5345  -0.5216  -0.5052  -0.4851  -0.4794  -0.4650  -0.4465
 -0.3575  -0.3433  -0.3246  -0.2670

          Ground-State Mulliken Net Atomic Charges

     Atom                 Charge (a.u.)
  ----------------------------------------
      1 C                    -0.075699
      2 C                    -0.313068
      3 C                    -0.056673
      4 H                     0.178870
      5 C                     0.110615
      6 S                    -0.176504
      7 C                    -0.295522
      8 H                     0.119504
      9 H                     0.103912
     10 H                     0.112721
     11 C                    -0.017085
     12 C                    -0.327380
     13 C                     0.060501
     14 H                     0.189694
     15 C                    -0.272083
     16 S                     0.006665
     17 C                    -0.271319
     18 H                     0.101413
     19 H                     0.109235
     20 H                     0.108482
     21 H                     0.196512
     22 H                     0.113812
     23 H                     0.110882
     24 H                     0.182513
  ----------------------------------------
  Sum of atomic charges =     0.000000

                    Cartesian Multipole Moments
 -----------------------------------------------------------------
    Charge (ESU x 10^10)
                -0.0000
    Dipole Moment (Debye)
         X       2.4938      Y      -0.1691      Z       3.1760
       Tot       4.0416
    Quadrupole Moments (Debye-Ang)
        XX     -90.7398     XY       0.3522     YY     -74.1384
        XZ       0.3521     YZ      -1.2628     ZZ     -85.7520

 Total job time:  661.89s(wall), 659.03s(cpu)
        *  Thank you very much for using Q-Chem.  Have a nice day.  *
