 Q-Chem 5.4, Q-Chem, Inc., Pleasanton, CA (2021)
 Q-Chem 5.4.0 for Intel X86 EM64T Linux

User input:
--------------------------------------------------------------
$molecule
0 1
C	-0.594240	-3.866725	0.497696
C	0.469057	-3.703963	-0.393981
C	0.817136	-2.357056	-0.685571
H	0.997777	-4.561092	-0.837848
C	0.000000	-1.440664	0.000000
S	-1.183137	-2.286957	0.992782
C	1.932056	-1.978743	-1.620802
H	2.426166	-2.878678	-2.035506
H	2.711806	-1.376015	-1.109943
H	1.564678	-1.375728	-2.477350
C	0.000000	0.000000	0.000000
C	0.295399	0.811508	1.099446
C	0.768742	2.111949	0.776721
H	0.169256	0.464952	2.136088
C	0.844232	2.319291	-0.612546
S	0.322342	0.885558	-1.486809
C	1.140796	3.134091	1.814609
H	0.995218	2.734123	2.836676
H	0.526006	4.054142	1.726239
H	2.203157	3.443680	1.726228
H	1.168902	3.211257	-1.161575
H	-0.281143	-4.392713	1.406441
H	-1.434879	-4.392347	0.031265
H	0.694122	-1.440937	0.827402
$end

$rem
JOBTYPE		SP
EXCHANGE	HF
CORRELATION	pRIMP2
BASIS		cc-pvtz
METHOD		rimp2
AUX_BASIS	rimp2-cc-pvtz
SOLVENT_METHOD	PCM
PURECART	11111
SYMMETRY	false
MEM_TOTAL	110000
SCF_CONVERGENCE = 6
THRESH=10
$end

$solvent
dielectric 4.90
$end
--------------------------------------------------------------

   10   -1180.7494957366      5.26e-07  Convergence criterion met
 Total energy in the final basis set =    -1180.7494957366
        RIMP2         total energy =     -1182.7582895302 a.u.
 Total job time:  689.30s(wall), 684.92s(cpu)
        *  Thank you very much for using Q-Chem.  Have a nice day.  *
 Q-Chem 5.4, Q-Chem, Inc., Pleasanton, CA (2021)
 Q-Chem 5.4.0 for Intel X86 EM64T Linux

User input:
--------------------------------------------------------------
$molecule
0 1
C	-0.594240	-3.866725	0.497696
C	0.469057	-3.703963	-0.393981
C	0.817136	-2.357056	-0.685571
H	0.997777	-4.561092	-0.837848
C	0.000000	-1.440664	0.000000
S	-1.183137	-2.286957	0.992782
C	1.932056	-1.978743	-1.620802
H	2.426166	-2.878678	-2.035506
H	2.711806	-1.376015	-1.109943
H	1.564678	-1.375728	-2.477350
C	0.000000	0.000000	0.000000
C	0.295399	0.811508	1.099446
C	0.768742	2.111949	0.776721
H	0.169256	0.464952	2.136088
C	0.844232	2.319291	-0.612546
S	0.322342	0.885558	-1.486809
C	1.140796	3.134091	1.814609
H	0.995218	2.734123	2.836676
H	0.526006	4.054142	1.726239
H	2.203157	3.443680	1.726228
H	1.168902	3.211257	-1.161575
H	-0.281143	-4.392713	1.406441
H	-1.434879	-4.392347	0.031265
H	0.694122	-1.440937	0.827402
$end

$rem
JOBTYPE		SP
EXCHANGE	HF
CORRELATION	pRIMP2
BASIS		cc-pvtz
METHOD		rimp2
AUX_BASIS	rimp2-cc-pvtz
SOLVENT_METHOD	PCM
PURECART	11111
SYMMETRY	false
MEM_TOTAL	110000
SCF_CONVERGENCE = 6
THRESH=10
$end

$solvent
dielectric 4.90
$end
--------------------------------------------------------------

             Standard Nuclear Orientation (Angstroms)
    I     Atom           X                Y                Z
 ----------------------------------------------------------------
    1      C      -0.5942400000    -3.8667250000     0.4976960000
    2      C       0.4690570000    -3.7039630000    -0.3939810000
    3      C       0.8171360000    -2.3570560000    -0.6855710000
    4      H       0.9977770000    -4.5610920000    -0.8378480000
    5      C       0.0000000000    -1.4406640000     0.0000000000
    6      S      -1.1831370000    -2.2869570000     0.9927820000
    7      C       1.9320560000    -1.9787430000    -1.6208020000
    8      H       2.4261660000    -2.8786780000    -2.0355060000
    9      H       2.7118060000    -1.3760150000    -1.1099430000
   10      H       1.5646780000    -1.3757280000    -2.4773500000
   11      C       0.0000000000     0.0000000000     0.0000000000
   12      C       0.2953990000     0.8115080000     1.0994460000
   13      C       0.7687420000     2.1119490000     0.7767210000
   14      H       0.1692560000     0.4649520000     2.1360880000
   15      C       0.8442320000     2.3192910000    -0.6125460000
   16      S       0.3223420000     0.8855580000    -1.4868090000
   17      C       1.1407960000     3.1340910000     1.8146090000
   18      H       0.9952180000     2.7341230000     2.8366760000
   19      H       0.5260060000     4.0541420000     1.7262390000
   20      H       2.2031570000     3.4436800000     1.7262280000
   21      H       1.1689020000     3.2112570000    -1.1615750000
   22      H      -0.2811430000    -4.3927130000     1.4064410000
   23      H      -1.4348790000    -4.3923470000     0.0312650000
   24      H       0.6941220000    -1.4409370000     0.8274020000
 ----------------------------------------------------------------

   10   -1180.7494957366      5.26e-07  Convergence criterion met
 Total energy in the final basis set =    -1180.7494957366
        RIMP2         total energy =     -1182.7582895302 a.u.

                    Orbital Energies (a.u.)
 --------------------------------------------------------------

 Alpha MOs
 -- Occupied --
-91.9823 -91.9412 -11.2835 -11.2640 -11.2609 -11.2561 -11.2509 -11.2413
-11.2379 -11.2303 -11.2288 -11.2199  -8.9822  -8.9460  -6.6631  -6.6625
 -6.6620  -6.6274  -6.6263  -6.6250  -1.2002  -1.1529  -1.0591  -1.0253
 -1.0077  -0.9575  -0.9125  -0.9017  -0.8127  -0.7675  -0.7289  -0.7002
 -0.6622  -0.6423  -0.6103  -0.5860  -0.5805  -0.5737  -0.5679  -0.5526
 -0.5423  -0.5313  -0.5153  -0.5072  -0.4927  -0.4766  -0.4577  -0.4477
 -0.3552  -0.3437  -0.3189  -0.2689

          Ground-State Mulliken Net Atomic Charges

     Atom                 Charge (a.u.)
  ----------------------------------------
      1 C                    -0.073934
      2 C                    -0.324631
      3 C                    -0.027592
      4 H                     0.177399
      5 C                     0.060773
      6 S                    -0.180794
      7 C                    -0.280767
      8 H                     0.114182
      9 H                     0.110701
     10 H                     0.110190
     11 C                    -0.039927
     12 C                    -0.265356
     13 C                     0.029150
     14 H                     0.183639
     15 C                    -0.251504
     16 S                     0.008976
     17 C                    -0.270710
     18 H                     0.102581
     19 H                     0.108464
     20 H                     0.107371
     21 H                     0.196248
     22 H                     0.109828
     23 H                     0.112256
     24 H                     0.183457
  ----------------------------------------
  Sum of atomic charges =     0.000000

                    Cartesian Multipole Moments
 -----------------------------------------------------------------
    Charge (ESU x 10^10)
                -0.0000
    Dipole Moment (Debye)
         X       3.0255      Y       0.2250      Z       0.4277
       Tot       3.0639
    Quadrupole Moments (Debye-Ang)
        XX     -90.8431     XY      -0.3588     YY     -75.3985
        XZ       0.2576     YZ       2.2999     ZZ     -85.4759

 Total job time:  651.52s(wall), 649.34s(cpu)
        *  Thank you very much for using Q-Chem.  Have a nice day.  *
