 Q-Chem 5.4, Q-Chem, Inc., Pleasanton, CA (2021)
 Q-Chem 5.4.0 for Intel X86 EM64T Linux

User input:
--------------------------------------------------------------
$molecule
0 1
C	-0.594240	-3.866725	0.497696
C	0.469057	-3.703963	-0.393981
C	0.817136	-2.357056	-0.685571
H	0.997777	-4.561092	-0.837848
C	0.000000	-1.440664	0.000000
S	-1.183137	-2.286957	0.992782
C	1.932056	-1.978743	-1.620802
H	2.426166	-2.878678	-2.035506
H	2.711806	-1.376015	-1.109943
H	1.564678	-1.375728	-2.477350
C	0.000000	0.000000	0.000000
C	0.747916	0.431772	1.099446
C	1.946425	1.123709	0.776721
H	0.428523	0.247378	2.136088
C	2.137531	1.234018	-0.612546
S	0.816154	0.471179	-1.486809
C	2.888455	1.667564	1.814609
H	2.519842	1.454746	2.836676
H	3.008896	2.767543	1.726239
H	3.901271	1.221850	1.726228
H	2.959587	1.708609	-1.161575
H	-0.281143	-4.392713	1.406441
H	-1.434879	-4.392347	0.031265
H	-0.694122	-1.440391	-0.827402
$end

$rem
JOBTYPE		SP
EXCHANGE	HF
CORRELATION	pRIMP2
BASIS		cc-pvtz
METHOD		rimp2
AUX_BASIS	rimp2-cc-pvtz
SOLVENT_METHOD	PCM
PURECART	11111
SYMMETRY	false
MEM_TOTAL	110000
SCF_CONVERGENCE = 6
THRESH=10
$end

$solvent
dielectric 4.90
$end
--------------------------------------------------------------

             Standard Nuclear Orientation (Angstroms)
    I     Atom           X                Y                Z
 ----------------------------------------------------------------
    1      C      -0.5942400000    -3.8667250000     0.4976960000
    2      C       0.4690570000    -3.7039630000    -0.3939810000
    3      C       0.8171360000    -2.3570560000    -0.6855710000
    4      H       0.9977770000    -4.5610920000    -0.8378480000
    5      C       0.0000000000    -1.4406640000     0.0000000000
    6      S      -1.1831370000    -2.2869570000     0.9927820000
    7      C       1.9320560000    -1.9787430000    -1.6208020000
    8      H       2.4261660000    -2.8786780000    -2.0355060000
    9      H       2.7118060000    -1.3760150000    -1.1099430000
   10      H       1.5646780000    -1.3757280000    -2.4773500000
   11      C       0.0000000000     0.0000000000     0.0000000000
   12      C       0.7479160000     0.4317720000     1.0994460000
   13      C       1.9464250000     1.1237090000     0.7767210000
   14      H       0.4285230000     0.2473780000     2.1360880000
   15      C       2.1375310000     1.2340180000    -0.6125460000
   16      S       0.8161540000     0.4711790000    -1.4868090000
   17      C       2.8884550000     1.6675640000     1.8146090000
   18      H       2.5198420000     1.4547460000     2.8366760000
   19      H       3.0088960000     2.7675430000     1.7262390000
   20      H       3.9012710000     1.2218500000     1.7262280000
   21      H       2.9595870000     1.7086090000    -1.1615750000
   22      H      -0.2811430000    -4.3927130000     1.4064410000
   23      H      -1.4348790000    -4.3923470000     0.0312650000
   24      H      -0.6941220000    -1.4403910000    -0.8274020000
 ----------------------------------------------------------------

   11   -1180.6561188489      5.29e-07  Convergence criterion met
 Total energy in the final basis set =    -1180.6561188489
        RIMP2         total energy =     -1182.6871720261 a.u.

                    Orbital Energies (a.u.)
 --------------------------------------------------------------

 Alpha MOs
 -- Occupied --
-91.9787 -91.9352 -11.2876 -11.2584 -11.2560 -11.2524 -11.2495 -11.2475
-11.2365 -11.2303 -11.2232 -11.2130  -8.9808  -8.9398  -6.6613  -6.6606
 -6.6604  -6.6212  -6.6202  -6.6190  -1.2058  -1.1532  -1.0601  -1.0244
 -1.0062  -0.9618  -0.9098  -0.9051  -0.8019  -0.7724  -0.7336  -0.7113
 -0.6504  -0.6304  -0.6146  -0.5948  -0.5839  -0.5733  -0.5689  -0.5528
 -0.5422  -0.5241  -0.5209  -0.5144  -0.4888  -0.4552  -0.4437  -0.4356
 -0.3504  -0.3344  -0.3198  -0.2653

          Ground-State Mulliken Net Atomic Charges

     Atom                 Charge (a.u.)
  ----------------------------------------
      1 C                    -0.066031
      2 C                    -0.341171
      3 C                    -0.043083
      4 H                     0.174813
      5 C                     0.065133
      6 S                    -0.212469
      7 C                    -0.278278
      8 H                     0.107237
      9 H                     0.112994
     10 H                     0.114679
     11 C                    -0.184218
     12 C                    -0.096416
     13 C                    -0.021882
     14 H                     0.194335
     15 C                    -0.186444
     16 S                     0.032682
     17 C                    -0.268599
     18 H                     0.103845
     19 H                     0.107718
     20 H                     0.103962
     21 H                     0.203531
     22 H                     0.107850
     23 H                     0.104481
     24 H                     0.165331
  ----------------------------------------
  Sum of atomic charges =     0.000000

                    Cartesian Multipole Moments
 -----------------------------------------------------------------
    Charge (ESU x 10^10)
                -0.0000
    Dipole Moment (Debye)
         X       4.3081      Y       0.8497      Z      -0.8432
       Tot       4.4714
    Quadrupole Moments (Debye-Ang)
        XX     -82.3542     XY       3.8221     YY     -84.5208
        XZ       0.2478     YZ       3.8063     ZZ     -85.0816

 Total job time:  794.65s(wall), 790.32s(cpu)
        *  Thank you very much for using Q-Chem.  Have a nice day.  *
