 Q-Chem 5.4, Q-Chem, Inc., Pleasanton, CA (2021)
 Q-Chem 5.4.0 for Intel X86 EM64T Linux

User input:
--------------------------------------------------------------
$molecule
0 1
C	0.775127	-3.866725	0.000713
C	-0.612565	-3.703963	0.000302
C	-1.066639	-2.357056	-0.000067
H	-1.302900	-4.561092	0.000470
C	0.000000	-1.440664	0.000000
S	1.544483	-2.286957	-0.000009
C	-2.521872	-1.978743	-0.000295
H	-3.166949	-2.878678	-0.000221
H	-2.790821	-1.376015	-0.892850
H	-2.791023	-1.375728	0.892005
C	0.000000	0.000000	0.000000
C	0.747916	0.431772	1.099446
C	1.946425	1.123709	0.776721
H	0.428523	0.247378	2.136088
C	2.137531	1.234018	-0.612546
S	0.816154	0.471179	-1.486809
C	2.888455	1.667564	1.814609
H	2.519842	1.454746	2.836676
H	3.008896	2.767543	1.726239
H	3.901271	1.221850	1.726228
H	2.959587	1.708609	-1.161575
H	1.119411	-4.392713	-0.896681
H	1.119277	-4.392347	0.898372
H	-0.000115	-1.440391	1.080000
$end

$rem
JOBTYPE		SP
EXCHANGE	HF
CORRELATION	pRIMP2
BASIS		cc-pvtz
METHOD		rimp2
AUX_BASIS	rimp2-cc-pvtz
SOLVENT_METHOD	PCM
PURECART	11111
SYMMETRY	false
MEM_TOTAL	110000
SCF_CONVERGENCE = 6
THRESH=10
$end

$solvent
dielectric 4.90
$end
--------------------------------------------------------------

             Standard Nuclear Orientation (Angstroms)
    I     Atom           X                Y                Z
 ----------------------------------------------------------------
    1      C       0.7751270000    -3.8667250000     0.0007130000
    2      C      -0.6125650000    -3.7039630000     0.0003020000
    3      C      -1.0666390000    -2.3570560000    -0.0000670000
    4      H      -1.3029000000    -4.5610920000     0.0004700000
    5      C       0.0000000000    -1.4406640000     0.0000000000
    6      S       1.5444830000    -2.2869570000    -0.0000090000
    7      C      -2.5218720000    -1.9787430000    -0.0002950000
    8      H      -3.1669490000    -2.8786780000    -0.0002210000
    9      H      -2.7908210000    -1.3760150000    -0.8928500000
   10      H      -2.7910230000    -1.3757280000     0.8920050000
   11      C       0.0000000000     0.0000000000     0.0000000000
   12      C       0.7479160000     0.4317720000     1.0994460000
   13      C       1.9464250000     1.1237090000     0.7767210000
   14      H       0.4285230000     0.2473780000     2.1360880000
   15      C       2.1375310000     1.2340180000    -0.6125460000
   16      S       0.8161540000     0.4711790000    -1.4868090000
   17      C       2.8884550000     1.6675640000     1.8146090000
   18      H       2.5198420000     1.4547460000     2.8366760000
   19      H       3.0088960000     2.7675430000     1.7262390000
   20      H       3.9012710000     1.2218500000     1.7262280000
   21      H       2.9595870000     1.7086090000    -1.1615750000
   22      H       1.1194110000    -4.3927130000    -0.8966810000
   23      H       1.1192770000    -4.3923470000     0.8983720000
   24      H      -0.0001150000    -1.4403910000     1.0800000000
 ----------------------------------------------------------------

   10   -1180.6885608691      8.09e-07  Convergence criterion met
 Total energy in the final basis set =    -1180.6885608691
        RIMP2         total energy =     -1182.7100862698 a.u.

                    Orbital Energies (a.u.)
 --------------------------------------------------------------

 Alpha MOs
 -- Occupied --
-91.9769 -91.9330 -11.2893 -11.2631 -11.2532 -11.2526 -11.2502 -11.2475
-11.2359 -11.2307 -11.2282 -11.2099  -8.9779  -8.9382  -6.6586  -6.6578
 -6.6576  -6.6195  -6.6185  -6.6173  -1.2064  -1.1528  -1.0584  -1.0240
 -1.0068  -0.9570  -0.9086  -0.9025  -0.8106  -0.7572  -0.7471  -0.6951
 -0.6568  -0.6365  -0.6130  -0.5922  -0.5791  -0.5731  -0.5638  -0.5493
 -0.5383  -0.5343  -0.5051  -0.5043  -0.4937  -0.4657  -0.4496  -0.4411
 -0.3622  -0.3264  -0.3146  -0.2751

          Ground-State Mulliken Net Atomic Charges

     Atom                 Charge (a.u.)
  ----------------------------------------
      1 C                    -0.087698
      2 C                    -0.331326
      3 C                    -0.072206
      4 H                     0.172516
      5 C                     0.075297
      6 S                    -0.187396
      7 C                    -0.272957
      8 H                     0.112084
      9 H                     0.105528
     10 H                     0.098907
     11 C                    -0.153266
     12 C                    -0.132549
     13 C                    -0.004957
     14 H                     0.184821
     15 C                    -0.161694
     16 S                     0.021868
     17 C                    -0.268335
     18 H                     0.102616
     19 H                     0.108613
     20 H                     0.107228
     21 H                     0.200971
     22 H                     0.110580
     23 H                     0.106742
     24 H                     0.164613
  ----------------------------------------
  Sum of atomic charges =     0.000000

                    Cartesian Multipole Moments
 -----------------------------------------------------------------
    Charge (ESU x 10^10)
                -0.0000
    Dipole Moment (Debye)
         X       0.4590      Y       0.9613      Z       2.4073
       Tot       2.6324
    Quadrupole Moments (Debye-Ang)
        XX     -82.2984     XY       9.0923     YY     -84.3643
        XZ       0.8549     YZ      -0.6015     ZZ     -85.2072

 Total job time:  706.59s(wall), 701.74s(cpu)
        *  Thank you very much for using Q-Chem.  Have a nice day.  *
