 Q-Chem 5.4, Q-Chem, Inc., Pleasanton, CA (2021)
 Q-Chem 5.4.0 for Intel X86 EM64T Linux

User input:
--------------------------------------------------------------
$molecule
0 1
C	-0.670924	-3.866725	-0.388181
C	0.530648	-3.703963	0.306020
C	0.923703	-2.357056	0.533378
H	1.128579	-4.561092	0.651043
C	0.000000	-1.440664	0.000000
S	-1.337567	-2.286957	-0.772234
C	2.183857	-1.978743	1.261192
H	2.742548	-2.878678	1.583666
H	1.970497	-1.376015	2.168641
H	2.863099	-1.375728	0.623012
C	0.000000	0.000000	0.000000
C	0.295399	0.811508	1.099446
C	0.768742	2.111949	0.776721
H	0.169256	0.464952	2.136088
C	0.844232	2.319291	-0.612546
S	0.322342	0.885558	-1.486809
C	1.140796	3.134091	1.814609
H	0.995218	2.734123	2.836676
H	0.526006	4.054142	1.726239
H	2.203157	3.443680	1.726228
H	1.168902	3.211257	-1.161575
H	-1.417779	-4.392713	0.216843
H	-0.520136	-4.392347	-1.337652
H	-0.540100	-1.440937	0.935250
$end

$rem
JOBTYPE		SP
EXCHANGE	HF
CORRELATION	pRIMP2
BASIS		cc-pvtz
METHOD		rimp2
AUX_BASIS	rimp2-cc-pvtz
SOLVENT_METHOD	PCM
PURECART	11111
SYMMETRY	false
MEM_TOTAL	110000
SCF_CONVERGENCE = 6
THRESH=10
$end

$solvent
dielectric 4.90
$end
--------------------------------------------------------------

             Standard Nuclear Orientation (Angstroms)
    I     Atom           X                Y                Z
 ----------------------------------------------------------------
    1      C      -0.6709240000    -3.8667250000    -0.3881810000
    2      C       0.5306480000    -3.7039630000     0.3060200000
    3      C       0.9237030000    -2.3570560000     0.5333780000
    4      H       1.1285790000    -4.5610920000     0.6510430000
    5      C       0.0000000000    -1.4406640000     0.0000000000
    6      S      -1.3375670000    -2.2869570000    -0.7722340000
    7      C       2.1838570000    -1.9787430000     1.2611920000
    8      H       2.7425480000    -2.8786780000     1.5836660000
    9      H       1.9704970000    -1.3760150000     2.1686410000
   10      H       2.8630990000    -1.3757280000     0.6230120000
   11      C       0.0000000000     0.0000000000     0.0000000000
   12      C       0.2953990000     0.8115080000     1.0994460000
   13      C       0.7687420000     2.1119490000     0.7767210000
   14      H       0.1692560000     0.4649520000     2.1360880000
   15      C       0.8442320000     2.3192910000    -0.6125460000
   16      S       0.3223420000     0.8855580000    -1.4868090000
   17      C       1.1407960000     3.1340910000     1.8146090000
   18      H       0.9952180000     2.7341230000     2.8366760000
   19      H       0.5260060000     4.0541420000     1.7262390000
   20      H       2.2031570000     3.4436800000     1.7262280000
   21      H       1.1689020000     3.2112570000    -1.1615750000
   22      H      -1.4177790000    -4.3927130000     0.2168430000
   23      H      -0.5201360000    -4.3923470000    -1.3376520000
   24      H      -0.5401000000    -1.4409370000     0.9352500000
 ----------------------------------------------------------------

   10   -1180.7556542175      5.33e-07  Convergence criterion met
 Total energy in the final basis set =    -1180.7556542175
        RIMP2         total energy =     -1182.7632749481 a.u.

                    Orbital Energies (a.u.)
 --------------------------------------------------------------

 Alpha MOs
 -- Occupied --
-91.9801 -91.9409 -11.2794 -11.2658 -11.2634 -11.2559 -11.2514 -11.2440
-11.2408 -11.2315 -11.2297 -11.2197  -8.9801  -8.9456  -6.6610  -6.6604
 -6.6599  -6.6270  -6.6260  -6.6247  -1.1988  -1.1538  -1.0584  -1.0268
 -1.0042  -0.9617  -0.9119  -0.9012  -0.8151  -0.7605  -0.7340  -0.7055
 -0.6589  -0.6422  -0.6109  -0.5904  -0.5829  -0.5715  -0.5626  -0.5532
 -0.5416  -0.5303  -0.5179  -0.5069  -0.4871  -0.4772  -0.4614  -0.4468
 -0.3550  -0.3420  -0.3172  -0.2766

          Ground-State Mulliken Net Atomic Charges

     Atom                 Charge (a.u.)
  ----------------------------------------
      1 C                    -0.075201
      2 C                    -0.324228
      3 C                    -0.034934
      4 H                     0.176876
      5 C                     0.080750
      6 S                    -0.177242
      7 C                    -0.269433
      8 H                     0.116470
      9 H                     0.097779
     10 H                     0.113014
     11 C                    -0.058743
     12 C                    -0.275013
     13 C                     0.032593
     14 H                     0.190361
     15 C                    -0.239327
     16 S                     0.005541
     17 C                    -0.271318
     18 H                     0.101781
     19 H                     0.108798
     20 H                     0.108152
     21 H                     0.197362
     22 H                     0.110350
     23 H                     0.110748
     24 H                     0.174861
  ----------------------------------------
  Sum of atomic charges =     0.000000

                    Cartesian Multipole Moments
 -----------------------------------------------------------------
    Charge (ESU x 10^10)
                -0.0000
    Dipole Moment (Debye)
         X       2.3816      Y       0.4948      Z       3.4625
       Tot       4.2315
    Quadrupole Moments (Debye-Ang)
        XX     -90.2136     XY       1.1327     YY     -74.7932
        XZ       0.2838     YZ      -1.9731     ZZ     -86.3372

 Total job time:  665.41s(wall), 659.11s(cpu)
        *  Thank you very much for using Q-Chem.  Have a nice day.  *
