 Q-Chem 5.4, Q-Chem, Inc., Pleasanton, CA (2021)
 Q-Chem 5.4.0 for Intel X86 EM64T Linux

User input:
--------------------------------------------------------------
$molecule
0 1
C	0.386946	-3.866725	0.671636
C	-0.306544	-3.703963	-0.530345
C	-0.533261	-2.357056	-0.923770
H	-0.651857	-4.561092	-1.128109
C	0.000000	-1.440664	0.000000
S	0.772250	-2.286957	1.337557
C	-1.260680	-1.978743	-2.184153
H	-1.583283	-2.878678	-2.742769
H	-0.622180	-1.376015	-2.863347
H	-2.168011	-1.375728	-1.971094
C	0.000000	0.000000	0.000000
C	0.223548	0.834165	1.099446
C	0.581748	2.170912	0.776721
H	0.128089	0.477934	2.136088
C	0.638880	2.384045	-0.612546
S	0.243934	0.910282	-1.486809
C	0.863301	3.221592	1.814609
H	0.753137	2.810458	2.836676
H	0.170663	4.084559	1.726239
H	1.894637	3.622593	1.726228
H	0.884575	3.300913	-1.161575
H	1.336254	-4.392713	0.521098
H	-0.218374	-4.392347	1.418509
H	-0.935365	-1.440391	0.539900
$end

$rem
JOBTYPE		SP
EXCHANGE	HF
CORRELATION	pRIMP2
BASIS		cc-pvtz
METHOD		rimp2
AUX_BASIS	rimp2-cc-pvtz
SOLVENT_METHOD	PCM
PURECART	11111
SYMMETRY	false
MEM_TOTAL	110000
SCF_CONVERGENCE = 6
THRESH=10
$end

$solvent
dielectric 4.90
$end
--------------------------------------------------------------

             Standard Nuclear Orientation (Angstroms)
    I     Atom           X                Y                Z
 ----------------------------------------------------------------
    1      C       0.3869460000    -3.8667250000     0.6716360000
    2      C      -0.3065440000    -3.7039630000    -0.5303450000
    3      C      -0.5332610000    -2.3570560000    -0.9237700000
    4      H      -0.6518570000    -4.5610920000    -1.1281090000
    5      C       0.0000000000    -1.4406640000     0.0000000000
    6      S       0.7722500000    -2.2869570000     1.3375570000
    7      C      -1.2606800000    -1.9787430000    -2.1841530000
    8      H      -1.5832830000    -2.8786780000    -2.7427690000
    9      H      -0.6221800000    -1.3760150000    -2.8633470000
   10      H      -2.1680110000    -1.3757280000    -1.9710940000
   11      C       0.0000000000     0.0000000000     0.0000000000
   12      C       0.2235480000     0.8341650000     1.0994460000
   13      C       0.5817480000     2.1709120000     0.7767210000
   14      H       0.1280890000     0.4779340000     2.1360880000
   15      C       0.6388800000     2.3840450000    -0.6125460000
   16      S       0.2439340000     0.9102820000    -1.4868090000
   17      C       0.8633010000     3.2215920000     1.8146090000
   18      H       0.7531370000     2.8104580000     2.8366760000
   19      H       0.1706630000     4.0845590000     1.7262390000
   20      H       1.8946370000     3.6225930000     1.7262280000
   21      H       0.8845750000     3.3009130000    -1.1615750000
   22      H       1.3362540000    -4.3927130000     0.5210980000
   23      H      -0.2183740000    -4.3923470000     1.4185090000
   24      H      -0.9353650000    -1.4403910000     0.5399000000
 ----------------------------------------------------------------

   10   -1180.7550088794      5.10e-07  Convergence criterion met
 Total energy in the final basis set =    -1180.7550088794
        RIMP2         total energy =     -1182.7620644963 a.u.

                    Orbital Energies (a.u.)
 --------------------------------------------------------------

 Alpha MOs
 -- Occupied --
-91.9813 -91.9450 -11.2868 -11.2649 -11.2585 -11.2570 -11.2508 -11.2428
-11.2352 -11.2330 -11.2281 -11.2218  -8.9813  -8.9496  -6.6622  -6.6616
 -6.6610  -6.6310  -6.6299  -6.6286  -1.2011  -1.1528  -1.0598  -1.0278
 -1.0073  -0.9567  -0.9153  -0.9013  -0.8154  -0.7703  -0.7222  -0.7014
 -0.6614  -0.6454  -0.6108  -0.5886  -0.5822  -0.5741  -0.5678  -0.5538
 -0.5418  -0.5342  -0.5149  -0.5088  -0.4882  -0.4823  -0.4584  -0.4479
 -0.3575  -0.3425  -0.3235  -0.2661

          Ground-State Mulliken Net Atomic Charges

     Atom                 Charge (a.u.)
  ----------------------------------------
      1 C                    -0.077624
      2 C                    -0.321677
      3 C                    -0.045436
      4 H                     0.178077
      5 C                     0.126098
      6 S                    -0.176862
      7 C                    -0.294237
      8 H                     0.117768
      9 H                     0.111119
     10 H                     0.111940
     11 C                    -0.025710
     12 C                    -0.328196
     13 C                     0.053306
     14 H                     0.181353
     15 C                    -0.268416
     16 S                     0.010877
     17 C                    -0.272934
     18 H                     0.102700
     19 H                     0.107879
     20 H                     0.109138
     21 H                     0.194487
     22 H                     0.113515
     23 H                     0.110665
     24 H                     0.182171
  ----------------------------------------
  Sum of atomic charges =     0.000000

                    Cartesian Multipole Moments
 -----------------------------------------------------------------
    Charge (ESU x 10^10)
                -0.0000
    Dipole Moment (Debye)
         X      -1.5875      Y      -0.1581      Z      -0.1923
       Tot       1.6069
    Quadrupole Moments (Debye-Ang)
        XX     -91.2436     XY       5.6089     YY     -73.9710
        XZ       0.3973     YZ       3.5173     ZZ     -85.4934

 Total job time:  659.30s(wall), 653.51s(cpu)
        *  Thank you very much for using Q-Chem.  Have a nice day.  *
