 Q-Chem 5.4, Q-Chem, Inc., Pleasanton, CA (2021)
 Q-Chem 5.4.0 for Intel X86 EM64T Linux

User input:
--------------------------------------------------------------
$molecule
0 1
C	0.000713	-3.866725	-0.775127
C	0.000302	-3.703963	0.612565
C	-0.000067	-2.357056	1.066639
H	0.000470	-4.561092	1.302900
C	-0.000000	-1.440664	-0.000000
S	-0.000009	-2.286957	-1.544483
C	-0.000295	-1.978743	2.521872
H	-0.000221	-2.878678	3.166949
H	-0.892850	-1.376015	2.790821
H	0.892005	-1.375728	2.791023
C	0.000000	0.000000	0.000000
C	0.555137	0.661535	1.099446
C	1.444710	1.721658	0.776721
H	0.318072	0.379023	2.136088
C	1.586563	1.890676	-0.612546
S	0.605781	0.721904	-1.486809
C	2.143920	2.554907	1.814609
H	1.870325	2.228851	2.836676
H	1.880882	3.629742	1.726239
H	3.248098	2.482476	1.726228
H	2.196723	2.617806	-1.161575
H	-0.896681	-4.392713	-1.119411
H	0.898372	-4.392347	-1.119277
H	-1.080000	-1.440937	-0.000115
$end

$rem
JOBTYPE		SP
EXCHANGE	HF
CORRELATION	pRIMP2
BASIS		cc-pvtz
METHOD		rimp2
AUX_BASIS	rimp2-cc-pvtz
SOLVENT_METHOD	PCM
PURECART	11111
SYMMETRY	false
MEM_TOTAL	110000
SCF_CONVERGENCE = 6
THRESH=10
$end

$solvent
dielectric 4.90
$end
--------------------------------------------------------------

             Standard Nuclear Orientation (Angstroms)
    I     Atom           X                Y                Z
 ----------------------------------------------------------------
    1      C       0.0007130000    -3.8667250000    -0.7751270000
    2      C       0.0003020000    -3.7039630000     0.6125650000
    3      C      -0.0000670000    -2.3570560000     1.0666390000
    4      H       0.0004700000    -4.5610920000     1.3029000000
    5      C       0.0000000000    -1.4406640000     0.0000000000
    6      S      -0.0000090000    -2.2869570000    -1.5444830000
    7      C      -0.0002950000    -1.9787430000     2.5218720000
    8      H      -0.0002210000    -2.8786780000     3.1669490000
    9      H      -0.8928500000    -1.3760150000     2.7908210000
   10      H       0.8920050000    -1.3757280000     2.7910230000
   11      C       0.0000000000     0.0000000000     0.0000000000
   12      C       0.5551370000     0.6615350000     1.0994460000
   13      C       1.4447100000     1.7216580000     0.7767210000
   14      H       0.3180720000     0.3790230000     2.1360880000
   15      C       1.5865630000     1.8906760000    -0.6125460000
   16      S       0.6057810000     0.7219040000    -1.4868090000
   17      C       2.1439200000     2.5549070000     1.8146090000
   18      H       1.8703250000     2.2288510000     2.8366760000
   19      H       1.8808820000     3.6297420000     1.7262390000
   20      H       3.2480980000     2.4824760000     1.7262280000
   21      H       2.1967230000     2.6178060000    -1.1615750000
   22      H      -0.8966810000    -4.3927130000    -1.1194110000
   23      H       0.8983720000    -4.3923470000    -1.1192770000
   24      H      -1.0800000000    -1.4409370000    -0.0001150000
 ----------------------------------------------------------------

   10   -1180.7118738052      8.06e-07  Convergence criterion met
 Total energy in the final basis set =    -1180.7118738052
        RIMP2         total energy =     -1182.7302915929 a.u.

                    Orbital Energies (a.u.)
 --------------------------------------------------------------

 Alpha MOs
 -- Occupied --
-91.9805 -91.9429 -11.2739 -11.2652 -11.2641 -11.2533 -11.2501 -11.2411
-11.2385 -11.2332 -11.2287 -11.2179  -8.9807  -8.9475  -6.6616  -6.6609
 -6.6604  -6.6289  -6.6279  -6.6266  -1.2016  -1.1526  -1.0584  -1.0321
 -0.9988  -0.9636  -0.9146  -0.8999  -0.8153  -0.7606  -0.7302  -0.7089
 -0.6522  -0.6448  -0.6096  -0.5945  -0.5878  -0.5685  -0.5630  -0.5474
 -0.5461  -0.5352  -0.5234  -0.5041  -0.4810  -0.4743  -0.4624  -0.4385
 -0.3613  -0.3410  -0.3221  -0.2570

          Ground-State Mulliken Net Atomic Charges

     Atom                 Charge (a.u.)
  ----------------------------------------
      1 C                    -0.077224
      2 C                    -0.328944
      3 C                    -0.036118
      4 H                     0.177074
      5 C                     0.095313
      6 S                    -0.184135
      7 C                    -0.298283
      8 H                     0.121046
      9 H                     0.106192
     10 H                     0.106497
     11 C                    -0.065853
     12 C                    -0.262452
     13 C                     0.037340
     14 H                     0.194175
     15 C                    -0.248254
     16 S                     0.017860
     17 C                    -0.270219
     18 H                     0.100595
     19 H                     0.108843
     20 H                     0.107030
     21 H                     0.197779
     22 H                     0.110557
     23 H                     0.112343
     24 H                     0.178837
  ----------------------------------------
  Sum of atomic charges =     0.000000

                    Cartesian Multipole Moments
 -----------------------------------------------------------------
    Charge (ESU x 10^10)
                -0.0000
    Dipole Moment (Debye)
         X       0.4472      Y       0.0877      Z       3.8461
       Tot       3.8730
    Quadrupole Moments (Debye-Ang)
        XX     -87.3162     XY       6.5986     YY     -78.4299
        XZ       0.8120     YZ      -2.6156     ZZ     -85.4345

 Total job time:  680.78s(wall), 677.24s(cpu)
        *  Thank you very much for using Q-Chem.  Have a nice day.  *
