 Q-Chem 5.4, Q-Chem, Inc., Pleasanton, CA (2021)
 Q-Chem 5.4.0 for Intel X86 EM64T Linux

User input:
--------------------------------------------------------------
$molecule
0 1
C	-0.670924	-3.866725	-0.388181
C	0.530648	-3.703963	0.306020
C	0.923703	-2.357056	0.533378
H	1.128579	-4.561092	0.651043
C	-0.000000	-1.440664	-0.000000
S	-1.337567	-2.286957	-0.772234
C	2.183857	-1.978743	1.261192
H	2.742548	-2.878678	1.583666
H	1.970497	-1.376015	2.168641
H	2.863099	-1.375728	0.623012
C	0.000000	0.000000	0.000000
C	0.555137	0.661535	1.099446
C	1.444710	1.721658	0.776721
H	0.318072	0.379023	2.136088
C	1.586563	1.890676	-0.612546
S	0.605781	0.721904	-1.486809
C	2.143920	2.554907	1.814609
H	1.870325	2.228851	2.836676
H	1.880882	3.629742	1.726239
H	3.248098	2.482476	1.726228
H	2.196723	2.617806	-1.161575
H	-1.417779	-4.392713	0.216843
H	-0.520136	-4.392347	-1.337652
H	0.540100	-1.440391	-0.935250
$end

$rem
JOBTYPE		SP
EXCHANGE	HF
CORRELATION	pRIMP2
BASIS		cc-pvtz
METHOD		rimp2
AUX_BASIS	rimp2-cc-pvtz
SOLVENT_METHOD	PCM
PURECART	11111
SYMMETRY	false
MEM_TOTAL	110000
SCF_CONVERGENCE = 6
THRESH=10
$end

$solvent
dielectric 4.90
$end
--------------------------------------------------------------

             Standard Nuclear Orientation (Angstroms)
    I     Atom           X                Y                Z
 ----------------------------------------------------------------
    1      C      -0.6709240000    -3.8667250000    -0.3881810000
    2      C       0.5306480000    -3.7039630000     0.3060200000
    3      C       0.9237030000    -2.3570560000     0.5333780000
    4      H       1.1285790000    -4.5610920000     0.6510430000
    5      C       0.0000000000    -1.4406640000     0.0000000000
    6      S      -1.3375670000    -2.2869570000    -0.7722340000
    7      C       2.1838570000    -1.9787430000     1.2611920000
    8      H       2.7425480000    -2.8786780000     1.5836660000
    9      H       1.9704970000    -1.3760150000     2.1686410000
   10      H       2.8630990000    -1.3757280000     0.6230120000
   11      C       0.0000000000     0.0000000000     0.0000000000
   12      C       0.5551370000     0.6615350000     1.0994460000
   13      C       1.4447100000     1.7216580000     0.7767210000
   14      H       0.3180720000     0.3790230000     2.1360880000
   15      C       1.5865630000     1.8906760000    -0.6125460000
   16      S       0.6057810000     0.7219040000    -1.4868090000
   17      C       2.1439200000     2.5549070000     1.8146090000
   18      H       1.8703250000     2.2288510000     2.8366760000
   19      H       1.8808820000     3.6297420000     1.7262390000
   20      H       3.2480980000     2.4824760000     1.7262280000
   21      H       2.1967230000     2.6178060000    -1.1615750000
   22      H      -1.4177790000    -4.3927130000     0.2168430000
   23      H      -0.5201360000    -4.3923470000    -1.3376520000
   24      H       0.5401000000    -1.4403910000    -0.9352500000
 ----------------------------------------------------------------

   10   -1180.7239955303      6.35e-07  Convergence criterion met
 Total energy in the final basis set =    -1180.7239955303
        RIMP2         total energy =     -1182.7377328600 a.u.

                    Orbital Energies (a.u.)
 --------------------------------------------------------------

 Alpha MOs
 -- Occupied --
-91.9802 -91.9356 -11.2744 -11.2699 -11.2614 -11.2518 -11.2511 -11.2485
-11.2384 -11.2307 -11.2303 -11.2174  -8.9811  -8.9406  -6.6620  -6.6613
 -6.6607  -6.6220  -6.6210  -6.6198  -1.2019  -1.1539  -1.0596  -1.0266
 -1.0003  -0.9658  -0.9120  -0.9007  -0.8083  -0.7597  -0.7482  -0.7060
 -0.6505  -0.6341  -0.6126  -0.5889  -0.5776  -0.5736  -0.5682  -0.5547
 -0.5445  -0.5303  -0.5207  -0.5073  -0.4862  -0.4686  -0.4611  -0.4443
 -0.3529  -0.3448  -0.3198  -0.2692

          Ground-State Mulliken Net Atomic Charges

     Atom                 Charge (a.u.)
  ----------------------------------------
      1 C                    -0.074195
      2 C                    -0.327574
      3 C                    -0.052709
      4 H                     0.176587
      5 C                     0.104100
      6 S                    -0.198253
      7 C                    -0.285283
      8 H                     0.119018
      9 H                     0.105130
     10 H                     0.110079
     11 C                    -0.074919
     12 C                    -0.261912
     13 C                     0.040562
     14 H                     0.194057
     15 C                    -0.220947
     16 S                     0.005388
     17 C                    -0.271088
     18 H                     0.102609
     19 H                     0.111347
     20 H                     0.106868
     21 H                     0.200294
     22 H                     0.109425
     23 H                     0.107391
     24 H                     0.174025
  ----------------------------------------
  Sum of atomic charges =     0.000000

                    Cartesian Multipole Moments
 -----------------------------------------------------------------
    Charge (ESU x 10^10)
                -0.0000
    Dipole Moment (Debye)
         X       4.0958      Y       0.7705      Z       2.2739
       Tot       4.7476
    Quadrupole Moments (Debye-Ang)
        XX     -87.5381     XY       1.6482     YY     -78.8811
        XZ       0.5792     YZ       0.0443     ZZ     -85.4798

 Total job time:  684.24s(wall), 681.36s(cpu)
        *  Thank you very much for using Q-Chem.  Have a nice day.  *
