 Q-Chem 5.4, Q-Chem, Inc., Pleasanton, CA (2021)
 Q-Chem 5.4.0 for Intel X86 EM64T Linux

User input:
--------------------------------------------------------------
$molecule
0 1
C	0.336297	-3.852073	0.775127
C	0.322520	-3.689895	-0.612565
C	0.205498	-2.348081	-1.066639
H	0.397057	-4.543777	-1.302900
C	0.125562	-1.435182	0.000000
S	0.199331	-2.278254	1.544483
C	0.172753	-1.971188	-2.521872
H	0.251114	-2.867704	-3.166949
H	1.009380	-1.292962	-2.790821
H	-0.768708	-1.448236	-2.791023
C	0.000000	0.000000	0.000000
C	0.149995	0.850475	1.099446
C	0.390327	2.213354	0.776721
H	0.085947	0.487279	2.136088
C	0.428665	2.430655	-0.612546
S	0.163670	0.928078	-1.486809
C	0.579235	3.284574	1.814609
H	0.505323	2.865404	2.836676
H	-0.185980	4.083890	1.726239
H	1.571698	3.773937	1.726228
H	0.593515	3.365448	-1.161575
H	1.276119	-4.297846	1.119411
H	-0.512135	-4.453931	1.119277
H	-0.950352	-1.529038	-0.000115
$end

$rem
JOBTYPE		SP
EXCHANGE	HF
CORRELATION	pRIMP2
BASIS		cc-pvtz
METHOD		rimp2
AUX_BASIS	rimp2-cc-pvtz
SOLVENT_METHOD	PCM
PURECART	11111
SYMMETRY	false
MEM_TOTAL	110000
SCF_CONVERGENCE = 6
THRESH=10
$end

$solvent
dielectric 4.90
$end
--------------------------------------------------------------

             Standard Nuclear Orientation (Angstroms)
    I     Atom           X                Y                Z
 ----------------------------------------------------------------
    1      C       0.3362970000    -3.8520730000     0.7751270000
    2      C       0.3225200000    -3.6898950000    -0.6125650000
    3      C       0.2054980000    -2.3480810000    -1.0666390000
    4      H       0.3970570000    -4.5437770000    -1.3029000000
    5      C       0.1255620000    -1.4351820000     0.0000000000
    6      S       0.1993310000    -2.2782540000     1.5444830000
    7      C       0.1727530000    -1.9711880000    -2.5218720000
    8      H       0.2511140000    -2.8677040000    -3.1669490000
    9      H       1.0093800000    -1.2929620000    -2.7908210000
   10      H      -0.7687080000    -1.4482360000    -2.7910230000
   11      C       0.0000000000     0.0000000000     0.0000000000
   12      C       0.1499950000     0.8504750000     1.0994460000
   13      C       0.3903270000     2.2133540000     0.7767210000
   14      H       0.0859470000     0.4872790000     2.1360880000
   15      C       0.4286650000     2.4306550000    -0.6125460000
   16      S       0.1636700000     0.9280780000    -1.4868090000
   17      C       0.5792350000     3.2845740000     1.8146090000
   18      H       0.5053230000     2.8654040000     2.8366760000
   19      H      -0.1859800000     4.0838900000     1.7262390000
   20      H       1.5716980000     3.7739370000     1.7262280000
   21      H       0.5935150000     3.3654480000    -1.1615750000
   22      H       1.2761190000    -4.2978460000     1.1194110000
   23      H      -0.5121350000    -4.4539310000     1.1192770000
   24      H      -0.9503520000    -1.5290380000    -0.0001150000
 ----------------------------------------------------------------

   10   -1180.7510551582      5.09e-07  Convergence criterion met
 Total energy in the final basis set =    -1180.7510551582
        RIMP2         total energy =     -1182.7588654603 a.u.

                    Orbital Energies (a.u.)
 --------------------------------------------------------------

 Alpha MOs
 -- Occupied --
-91.9808 -91.9465 -11.2886 -11.2665 -11.2608 -11.2543 -11.2498 -11.2441
-11.2327 -11.2319 -11.2274 -11.2223  -8.9810  -8.9511  -6.6619  -6.6613
 -6.6606  -6.6324  -6.6314  -6.6302  -1.2025  -1.1523  -1.0608  -1.0286
 -1.0068  -0.9566  -0.9164  -0.9017  -0.8149  -0.7724  -0.7173  -0.7051
 -0.6589  -0.6482  -0.6107  -0.5925  -0.5827  -0.5721  -0.5679  -0.5536
 -0.5417  -0.5344  -0.5164  -0.5110  -0.4877  -0.4825  -0.4576  -0.4450
 -0.3590  -0.3413  -0.3267  -0.2635

          Ground-State Mulliken Net Atomic Charges

     Atom                 Charge (a.u.)
  ----------------------------------------
      1 C                    -0.072924
      2 C                    -0.321914
      3 C                    -0.050348
      4 H                     0.179357
      5 C                     0.147508
      6 S                    -0.186779
      7 C                    -0.311135
      8 H                     0.122403
      9 H                     0.115878
     10 H                     0.111421
     11 C                    -0.029786
     12 C                    -0.316684
     13 C                     0.051981
     14 H                     0.178486
     15 C                    -0.280404
     16 S                     0.009412
     17 C                    -0.271260
     18 H                     0.102565
     19 H                     0.108162
     20 H                     0.108527
     21 H                     0.196091
     22 H                     0.113055
     23 H                     0.112007
     24 H                     0.184382
  ----------------------------------------
  Sum of atomic charges =     0.000000

                    Cartesian Multipole Moments
 -----------------------------------------------------------------
    Charge (ESU x 10^10)
                 0.0000
    Dipole Moment (Debye)
         X      -0.4762      Y      -0.4552      Z      -1.0775
       Tot       1.2630
    Quadrupole Moments (Debye-Ang)
        XX     -91.6869     XY       2.3831     YY     -73.3215
        XZ      -0.4495     YZ       4.6317     ZZ     -85.4719

 Total job time:  664.41s(wall), 657.73s(cpu)
        *  Thank you very much for using Q-Chem.  Have a nice day.  *
