 Q-Chem 5.4, Q-Chem, Inc., Pleasanton, CA (2021)
 Q-Chem 5.4.0 for Intel X86 EM64T Linux

User input:
--------------------------------------------------------------
$molecule
0 1
C	-0.775127	-3.866725	-0.000713
C	0.612565	-3.703963	-0.000302
C	1.066639	-2.357056	0.000067
H	1.302900	-4.561092	-0.000470
C	0.000000	-1.440664	0.000000
S	-1.544483	-2.286957	0.000009
C	2.521872	-1.978743	0.000295
H	3.166949	-2.878678	0.000221
H	2.790821	-1.376015	0.892850
H	2.791023	-1.375728	-0.892005
C	0.000000	0.000000	0.000000
C	0.223548	0.834165	1.099446
C	0.581748	2.170912	0.776721
H	0.128089	0.477934	2.136088
C	0.638880	2.384045	-0.612546
S	0.243934	0.910282	-1.486809
C	0.863301	3.221592	1.814609
H	0.753137	2.810458	2.836676
H	0.170663	4.084559	1.726239
H	1.894637	3.622593	1.726228
H	0.884575	3.300913	-1.161575
H	-1.119411	-4.392713	0.896681
H	-1.119277	-4.392347	-0.898372
H	-0.000115	-1.440937	1.080000
$end

$rem
JOBTYPE		SP
EXCHANGE	HF
CORRELATION	pRIMP2
BASIS		cc-pvtz
METHOD		rimp2
AUX_BASIS	rimp2-cc-pvtz
SOLVENT_METHOD	PCM
PURECART	11111
SYMMETRY	false
MEM_TOTAL	110000
SCF_CONVERGENCE = 6
THRESH=10
$end

$solvent
dielectric 4.90
$end
--------------------------------------------------------------

             Standard Nuclear Orientation (Angstroms)
    I     Atom           X                Y                Z
 ----------------------------------------------------------------
    1      C      -0.7751270000    -3.8667250000    -0.0007130000
    2      C       0.6125650000    -3.7039630000    -0.0003020000
    3      C       1.0666390000    -2.3570560000     0.0000670000
    4      H       1.3029000000    -4.5610920000    -0.0004700000
    5      C       0.0000000000    -1.4406640000     0.0000000000
    6      S      -1.5444830000    -2.2869570000     0.0000090000
    7      C       2.5218720000    -1.9787430000     0.0002950000
    8      H       3.1669490000    -2.8786780000     0.0002210000
    9      H       2.7908210000    -1.3760150000     0.8928500000
   10      H       2.7910230000    -1.3757280000    -0.8920050000
   11      C       0.0000000000     0.0000000000     0.0000000000
   12      C       0.2235480000     0.8341650000     1.0994460000
   13      C       0.5817480000     2.1709120000     0.7767210000
   14      H       0.1280890000     0.4779340000     2.1360880000
   15      C       0.6388800000     2.3840450000    -0.6125460000
   16      S       0.2439340000     0.9102820000    -1.4868090000
   17      C       0.8633010000     3.2215920000     1.8146090000
   18      H       0.7531370000     2.8104580000     2.8366760000
   19      H       0.1706630000     4.0845590000     1.7262390000
   20      H       1.8946370000     3.6225930000     1.7262280000
   21      H       0.8845750000     3.3009130000    -1.1615750000
   22      H      -1.1194110000    -4.3927130000     0.8966810000
   23      H      -1.1192770000    -4.3923470000    -0.8983720000
   24      H      -0.0001150000    -1.4409370000     1.0800000000
 ----------------------------------------------------------------

   10   -1180.7599241578      5.15e-07  Convergence criterion met
 Total energy in the final basis set =    -1180.7599241578
        RIMP2         total energy =     -1182.7657292076 a.u.

                    Orbital Energies (a.u.)
 --------------------------------------------------------------

 Alpha MOs
 -- Occupied --
-91.9805 -91.9395 -11.2796 -11.2668 -11.2629 -11.2549 -11.2512 -11.2456
-11.2401 -11.2311 -11.2297 -11.2193  -8.9805  -8.9443  -6.6614  -6.6608
 -6.6603  -6.6257  -6.6246  -6.6233  -1.1981  -1.1540  -1.0581  -1.0252
 -1.0064  -0.9604  -0.9116  -0.9014  -0.8142  -0.7615  -0.7365  -0.7026
 -0.6605  -0.6406  -0.6106  -0.5893  -0.5799  -0.5722  -0.5661  -0.5508
 -0.5417  -0.5291  -0.5161  -0.5053  -0.4924  -0.4782  -0.4599  -0.4475
 -0.3550  -0.3421  -0.3125  -0.2816

          Ground-State Mulliken Net Atomic Charges

     Atom                 Charge (a.u.)
  ----------------------------------------
      1 C                    -0.078680
      2 C                    -0.328094
      3 C                    -0.011778
      4 H                     0.176207
      5 C                     0.071275
      6 S                    -0.179472
      7 C                    -0.266689
      8 H                     0.113984
      9 H                     0.101691
     10 H                     0.108016
     11 C                    -0.070140
     12 C                    -0.251597
     13 C                     0.027268
     14 H                     0.182466
     15 C                    -0.235672
     16 S                     0.005382
     17 C                    -0.271505
     18 H                     0.102132
     19 H                     0.108697
     20 H                     0.107980
     21 H                     0.197241
     22 H                     0.110639
     23 H                     0.111725
     24 H                     0.168925
  ----------------------------------------
  Sum of atomic charges =     0.000000

                    Cartesian Multipole Moments
 -----------------------------------------------------------------
    Charge (ESU x 10^10)
                -0.0000
    Dipole Moment (Debye)
         X       2.9678      Y       0.6737      Z       2.3157
       Tot       3.8242
    Quadrupole Moments (Debye-Ang)
        XX     -91.1191     XY      -1.0036     YY     -74.4279
        XZ      -0.0414     YZ      -0.2957     ZZ     -86.0264

 Total job time:  660.42s(wall), 652.87s(cpu)
        *  Thank you very much for using Q-Chem.  Have a nice day.  *
