 Q-Chem 5.4, Q-Chem, Inc., Pleasanton, CA (2021)
 Q-Chem 5.4.0 for Intel X86 EM64T Linux

User input:
--------------------------------------------------------------
$molecule
0 1
C	0.763228	-3.866725	0.135301
C	-0.603311	-3.703963	-0.106073
C	-1.050423	-2.357056	-0.185286
H	-1.283188	-4.561092	-0.225783
C	0.000000	-1.440664	0.000000
S	1.521021	-2.286957	0.268187
C	-2.483507	-1.978743	-0.438209
H	-3.118798	-2.878678	-0.550153
H	-2.593381	-1.376015	-1.363906
H	-2.903516	-1.375728	0.393798
C	0.000000	0.000000	0.000000
C	0.747916	0.431772	1.099446
C	1.946425	1.123709	0.776721
H	0.428523	0.247378	2.136088
C	2.137531	1.234018	-0.612546
S	0.816154	0.471179	-1.486809
C	2.888455	1.667564	1.814609
H	2.519842	1.454746	2.836676
H	3.008896	2.767543	1.726239
H	3.901271	1.221850	1.726228
H	2.959587	1.708609	-1.161575
H	1.258111	-4.392713	-0.688674
H	0.946272	-4.392347	1.079084
H	-0.187654	-1.440391	1.063572
$end

$rem
JOBTYPE		SP
EXCHANGE	HF
CORRELATION	pRIMP2
BASIS		cc-pvtz
METHOD		rimp2
AUX_BASIS	rimp2-cc-pvtz
SOLVENT_METHOD	PCM
PURECART	11111
SYMMETRY	false
MEM_TOTAL	110000
SCF_CONVERGENCE = 6
THRESH=10
$end

$solvent
dielectric 4.90
$end
--------------------------------------------------------------

             Standard Nuclear Orientation (Angstroms)
    I     Atom           X                Y                Z
 ----------------------------------------------------------------
    1      C       0.7632280000    -3.8667250000     0.1353010000
    2      C      -0.6033110000    -3.7039630000    -0.1060730000
    3      C      -1.0504230000    -2.3570560000    -0.1852860000
    4      H      -1.2831880000    -4.5610920000    -0.2257830000
    5      C       0.0000000000    -1.4406640000     0.0000000000
    6      S       1.5210210000    -2.2869570000     0.2681870000
    7      C      -2.4835070000    -1.9787430000    -0.4382090000
    8      H      -3.1187980000    -2.8786780000    -0.5501530000
    9      H      -2.5933810000    -1.3760150000    -1.3639060000
   10      H      -2.9035160000    -1.3757280000     0.3937980000
   11      C       0.0000000000     0.0000000000     0.0000000000
   12      C       0.7479160000     0.4317720000     1.0994460000
   13      C       1.9464250000     1.1237090000     0.7767210000
   14      H       0.4285230000     0.2473780000     2.1360880000
   15      C       2.1375310000     1.2340180000    -0.6125460000
   16      S       0.8161540000     0.4711790000    -1.4868090000
   17      C       2.8884550000     1.6675640000     1.8146090000
   18      H       2.5198420000     1.4547460000     2.8366760000
   19      H       3.0088960000     2.7675430000     1.7262390000
   20      H       3.9012710000     1.2218500000     1.7262280000
   21      H       2.9595870000     1.7086090000    -1.1615750000
   22      H       1.2581110000    -4.3927130000    -0.6886740000
   23      H       0.9462720000    -4.3923470000     1.0790840000
   24      H      -0.1876540000    -1.4403910000     1.0635720000
 ----------------------------------------------------------------

   10   -1180.6928735605      7.85e-07  Convergence criterion met
 Total energy in the final basis set =    -1180.6928735605
        RIMP2         total energy =     -1182.7138873867 a.u.

                    Orbital Energies (a.u.)
 --------------------------------------------------------------

 Alpha MOs
 -- Occupied --
-91.9765 -91.9335 -11.2897 -11.2635 -11.2536 -11.2533 -11.2500 -11.2485
-11.2360 -11.2308 -11.2283 -11.2110  -8.9775  -8.9387  -6.6583  -6.6575
 -6.6572  -6.6200  -6.6190  -6.6177  -1.2060  -1.1532  -1.0584  -1.0236
 -1.0077  -0.9564  -0.9098  -0.9022  -0.8106  -0.7598  -0.7454  -0.6945
 -0.6561  -0.6365  -0.6137  -0.5922  -0.5787  -0.5741  -0.5641  -0.5490
 -0.5386  -0.5350  -0.5063  -0.5050  -0.4925  -0.4646  -0.4494  -0.4420
 -0.3606  -0.3291  -0.3153  -0.2754

          Ground-State Mulliken Net Atomic Charges

     Atom                 Charge (a.u.)
  ----------------------------------------
      1 C                    -0.087002
      2 C                    -0.326537
      3 C                    -0.072335
      4 H                     0.172795
      5 C                     0.081910
      6 S                    -0.190274
      7 C                    -0.274021
      8 H                     0.112093
      9 H                     0.104891
     10 H                     0.100503
     11 C                    -0.150610
     12 C                    -0.145461
     13 C                    -0.002380
     14 H                     0.186566
     15 C                    -0.157609
     16 S                     0.017193
     17 C                    -0.267637
     18 H                     0.103015
     19 H                     0.109281
     20 H                     0.107489
     21 H                     0.201313
     22 H                     0.110513
     23 H                     0.106342
     24 H                     0.159962
  ----------------------------------------
  Sum of atomic charges =     0.000000

                    Cartesian Multipole Moments
 -----------------------------------------------------------------
    Charge (ESU x 10^10)
                -0.0000
    Dipole Moment (Debye)
         X       0.3674      Y       0.9450      Z       2.0417
       Tot       2.2796
    Quadrupole Moments (Debye-Ang)
        XX     -82.3368     XY       9.3988     YY     -83.9839
        XZ       0.9115     YZ      -0.0291     ZZ     -85.2165

 Total job time:  704.81s(wall), 700.49s(cpu)
        *  Thank you very much for using Q-Chem.  Have a nice day.  *
