 Q-Chem 5.4, Q-Chem, Inc., Pleasanton, CA (2021)
 Q-Chem 5.4.0 for Intel X86 EM64T Linux

User input:
--------------------------------------------------------------
$molecule
0 1
C	0.775127	-3.866725	0.000713
C	-0.612565	-3.703963	0.000302
C	-1.066639	-2.357056	-0.000067
H	-1.302900	-4.561092	0.000470
C	-0.000000	-1.440664	-0.000000
S	1.544483	-2.286957	-0.000009
C	-2.521872	-1.978743	-0.000295
H	-3.166949	-2.878678	-0.000221
H	-2.790821	-1.376015	-0.892850
H	-2.791023	-1.375728	0.892005
C	0.000000	0.000000	0.000000
C	0.075300	0.860311	1.099446
C	0.195935	2.238951	0.776721
H	0.043151	0.492916	2.136088
C	0.215188	2.458766	-0.612546
S	0.082160	0.938811	-1.486809
C	0.290762	3.322559	1.814609
H	0.253664	2.898542	2.836676
H	-0.541206	4.052140	1.726239
H	1.236797	3.896558	1.726228
H	0.297938	3.404370	-1.161575
H	1.119411	-4.392713	-0.896681
H	1.119277	-4.392347	0.898372
H	-0.000115	-1.440391	1.080000
$end

$rem
JOBTYPE		SP
EXCHANGE	HF
CORRELATION	pRIMP2
BASIS		cc-pvtz
METHOD		rimp2
AUX_BASIS	rimp2-cc-pvtz
SOLVENT_METHOD	PCM
PURECART	11111
SYMMETRY	false
MEM_TOTAL	110000
SCF_CONVERGENCE = 6
THRESH=10
$end

$solvent
dielectric 4.90
$end
--------------------------------------------------------------

             Standard Nuclear Orientation (Angstroms)
    I     Atom           X                Y                Z
 ----------------------------------------------------------------
    1      C       0.7751270000    -3.8667250000     0.0007130000
    2      C      -0.6125650000    -3.7039630000     0.0003020000
    3      C      -1.0666390000    -2.3570560000    -0.0000670000
    4      H      -1.3029000000    -4.5610920000     0.0004700000
    5      C       0.0000000000    -1.4406640000     0.0000000000
    6      S       1.5444830000    -2.2869570000    -0.0000090000
    7      C      -2.5218720000    -1.9787430000    -0.0002950000
    8      H      -3.1669490000    -2.8786780000    -0.0002210000
    9      H      -2.7908210000    -1.3760150000    -0.8928500000
   10      H      -2.7910230000    -1.3757280000     0.8920050000
   11      C       0.0000000000     0.0000000000     0.0000000000
   12      C       0.0753000000     0.8603110000     1.0994460000
   13      C       0.1959350000     2.2389510000     0.7767210000
   14      H       0.0431510000     0.4929160000     2.1360880000
   15      C       0.2151880000     2.4587660000    -0.6125460000
   16      S       0.0821600000     0.9388110000    -1.4868090000
   17      C       0.2907620000     3.3225590000     1.8146090000
   18      H       0.2536640000     2.8985420000     2.8366760000
   19      H      -0.5412060000     4.0521400000     1.7262390000
   20      H       1.2367970000     3.8965580000     1.7262280000
   21      H       0.2979380000     3.4043700000    -1.1615750000
   22      H       1.1194110000    -4.3927130000    -0.8966810000
   23      H       1.1192770000    -4.3923470000     0.8983720000
   24      H      -0.0001150000    -1.4403910000     1.0800000000
 ----------------------------------------------------------------

   10   -1180.7646902660      5.02e-07  Convergence criterion met
 Total energy in the final basis set =    -1180.7646902660
        RIMP2         total energy =     -1182.7689076861 a.u.

                    Orbital Energies (a.u.)
 --------------------------------------------------------------

 Alpha MOs
 -- Occupied --
-91.9801 -91.9415 -11.2813 -11.2650 -11.2624 -11.2554 -11.2507 -11.2441
-11.2408 -11.2316 -11.2293 -11.2192  -8.9801  -8.9461  -6.6610  -6.6605
 -6.6599  -6.6275  -6.6265  -6.6252  -1.1979  -1.1537  -1.0580  -1.0260
 -1.0059  -0.9598  -0.9120  -0.9010  -0.8154  -0.7614  -0.7356  -0.7018
 -0.6611  -0.6410  -0.6105  -0.5890  -0.5803  -0.5714  -0.5659  -0.5505
 -0.5416  -0.5301  -0.5128  -0.5061  -0.4925  -0.4815  -0.4598  -0.4486
 -0.3563  -0.3408  -0.3117  -0.2828

          Ground-State Mulliken Net Atomic Charges

     Atom                 Charge (a.u.)
  ----------------------------------------
      1 C                    -0.077092
      2 C                    -0.327758
      3 C                    -0.025221
      4 H                     0.176448
      5 C                     0.090358
      6 S                    -0.174278
      7 C                    -0.265852
      8 H                     0.112481
      9 H                     0.106623
     10 H                     0.100834
     11 C                    -0.083217
     12 C                    -0.241900
     13 C                     0.021373
     14 H                     0.182021
     15 C                    -0.235735
     16 S                     0.005977
     17 C                    -0.271767
     18 H                     0.102007
     19 H                     0.107862
     20 H                     0.108851
     21 H                     0.196861
     22 H                     0.112546
     23 H                     0.111042
     24 H                     0.167536
  ----------------------------------------
  Sum of atomic charges =     0.000000

                    Cartesian Multipole Moments
 -----------------------------------------------------------------
    Charge (ESU x 10^10)
                -0.0000
    Dipole Moment (Debye)
         X      -2.2532      Y       0.5772      Z       2.2997
       Tot       3.2709
    Quadrupole Moments (Debye-Ang)
        XX     -91.6354     XY       4.5283     YY     -73.6832
        XZ       0.4276     YZ      -0.2584     ZZ     -86.0723

 Total job time:  647.54s(wall), 643.93s(cpu)
        *  Thank you very much for using Q-Chem.  Have a nice day.  *
