 Q-Chem 5.4, Q-Chem, Inc., Pleasanton, CA (2021)
 Q-Chem 5.4.0 for Intel X86 EM64T Linux

User input:
--------------------------------------------------------------
$molecule
0 1
C	0.763228	-3.866725	0.135301
C	-0.603311	-3.703963	-0.106073
C	-1.050423	-2.357056	-0.185286
H	-1.283188	-4.561092	-0.225783
C	-0.000000	-1.440664	-0.000000
S	1.521021	-2.286957	0.268187
C	-2.483507	-1.978743	-0.438209
H	-3.118798	-2.878678	-0.550153
H	-2.593381	-1.376015	-1.363906
H	-2.903516	-1.375728	0.393798
C	0.000000	0.000000	0.000000
C	0.555137	0.661535	1.099446
C	1.444710	1.721658	0.776721
H	0.318072	0.379023	2.136088
C	1.586563	1.890676	-0.612546
S	0.605781	0.721904	-1.486809
C	2.143920	2.554907	1.814609
H	1.870325	2.228851	2.836676
H	1.880882	3.629742	1.726239
H	3.248098	2.482476	1.726228
H	2.196723	2.617806	-1.161575
H	1.258111	-4.392713	-0.688674
H	0.946272	-4.392347	1.079084
H	-0.187654	-1.440391	1.063572
$end

$rem
JOBTYPE		SP
EXCHANGE	HF
CORRELATION	pRIMP2
BASIS		cc-pvtz
METHOD		rimp2
AUX_BASIS	rimp2-cc-pvtz
SOLVENT_METHOD	PCM
PURECART	11111
SYMMETRY	false
MEM_TOTAL	110000
SCF_CONVERGENCE = 6
THRESH=10
$end

$solvent
dielectric 4.90
$end
--------------------------------------------------------------

             Standard Nuclear Orientation (Angstroms)
    I     Atom           X                Y                Z
 ----------------------------------------------------------------
    1      C       0.7632280000    -3.8667250000     0.1353010000
    2      C      -0.6033110000    -3.7039630000    -0.1060730000
    3      C      -1.0504230000    -2.3570560000    -0.1852860000
    4      H      -1.2831880000    -4.5610920000    -0.2257830000
    5      C       0.0000000000    -1.4406640000     0.0000000000
    6      S       1.5210210000    -2.2869570000     0.2681870000
    7      C      -2.4835070000    -1.9787430000    -0.4382090000
    8      H      -3.1187980000    -2.8786780000    -0.5501530000
    9      H      -2.5933810000    -1.3760150000    -1.3639060000
   10      H      -2.9035160000    -1.3757280000     0.3937980000
   11      C       0.0000000000     0.0000000000     0.0000000000
   12      C       0.5551370000     0.6615350000     1.0994460000
   13      C       1.4447100000     1.7216580000     0.7767210000
   14      H       0.3180720000     0.3790230000     2.1360880000
   15      C       1.5865630000     1.8906760000    -0.6125460000
   16      S       0.6057810000     0.7219040000    -1.4868090000
   17      C       2.1439200000     2.5549070000     1.8146090000
   18      H       1.8703250000     2.2288510000     2.8366760000
   19      H       1.8808820000     3.6297420000     1.7262390000
   20      H       3.2480980000     2.4824760000     1.7262280000
   21      H       2.1967230000     2.6178060000    -1.1615750000
   22      H       1.2581110000    -4.3927130000    -0.6886740000
   23      H       0.9462720000    -4.3923470000     1.0790840000
   24      H      -0.1876540000    -1.4403910000     1.0635720000
 ----------------------------------------------------------------

   10   -1180.7352719708      6.22e-07  Convergence criterion met
 Total energy in the final basis set =    -1180.7352719708
        RIMP2         total energy =     -1182.7470441775 a.u.

                    Orbital Energies (a.u.)
 --------------------------------------------------------------

 Alpha MOs
 -- Occupied --
-91.9778 -91.9388 -11.2754 -11.2677 -11.2577 -11.2523 -11.2516 -11.2512
-11.2387 -11.2302 -11.2297 -11.2151  -8.9783  -8.9436  -6.6592  -6.6585
 -6.6580  -6.6249  -6.6239  -6.6226  -1.1995  -1.1539  -1.0574  -1.0252
 -1.0059  -0.9581  -0.9106  -0.9016  -0.8128  -0.7608  -0.7387  -0.6976
 -0.6584  -0.6387  -0.6111  -0.5892  -0.5805  -0.5725  -0.5651  -0.5495
 -0.5399  -0.5326  -0.5088  -0.5070  -0.4921  -0.4698  -0.4579  -0.4474
 -0.3577  -0.3365  -0.3129  -0.2792

          Ground-State Mulliken Net Atomic Charges

     Atom                 Charge (a.u.)
  ----------------------------------------
      1 C                    -0.075975
      2 C                    -0.326638
      3 C                    -0.043611
      4 H                     0.174084
      5 C                     0.060868
      6 S                    -0.176534
      7 C                    -0.272909
      8 H                     0.112759
      9 H                     0.105838
     10 H                     0.101865
     11 C                    -0.065138
     12 C                    -0.249934
     13 C                     0.043207
     14 H                     0.182105
     15 C                    -0.212351
     16 S                     0.008358
     17 C                    -0.267150
     18 H                     0.102251
     19 H                     0.107467
     20 H                     0.108246
     21 H                     0.198652
     22 H                     0.111033
     23 H                     0.107456
     24 H                     0.166053
  ----------------------------------------
  Sum of atomic charges =     0.000000

                    Cartesian Multipole Moments
 -----------------------------------------------------------------
    Charge (ESU x 10^10)
                -0.0000
    Dipole Moment (Debye)
         X      -0.8997      Y       0.8363      Z       1.9632
       Tot       2.3158
    Quadrupole Moments (Debye-Ang)
        XX     -87.0388     XY       9.4615     YY     -78.7952
        XZ       0.9529     YZ       0.1035     ZZ     -85.6965

 Total job time:  664.61s(wall), 652.67s(cpu)
        *  Thank you very much for using Q-Chem.  Have a nice day.  *
