 Q-Chem 5.4, Q-Chem, Inc., Pleasanton, CA (2021)
 Q-Chem 5.4.0 for Intel X86 EM64T Linux

User input:
--------------------------------------------------------------
$molecule
0 1
C	-0.135301	-3.866725	0.763228
C	0.106073	-3.703963	-0.603311
C	0.185286	-2.357056	-1.050423
H	0.225783	-4.561092	-1.283188
C	-0.000000	-1.440664	-0.000000
S	-0.268187	-2.286957	1.521021
C	0.438209	-1.978743	-2.483507
H	0.550153	-2.878678	-3.118798
H	1.363906	-1.376015	-2.593381
H	-0.393798	-1.375728	-2.903516
C	0.000000	0.000000	0.000000
C	0.149995	0.850475	1.099446
C	0.390327	2.213354	0.776721
H	0.085947	0.487279	2.136088
C	0.428665	2.430655	-0.612546
S	0.163670	0.928078	-1.486809
C	0.579235	3.284574	1.814609
H	0.505323	2.865404	2.836676
H	-0.185980	4.083890	1.726239
H	1.571698	3.773937	1.726228
H	0.593515	3.365448	-1.161575
H	0.688674	-4.392713	1.258111
H	-1.079084	-4.392347	0.946272
H	1.063572	-1.440937	0.187654
$end

$rem
JOBTYPE		SP
EXCHANGE	HF
CORRELATION	pRIMP2
BASIS		cc-pvtz
METHOD		rimp2
AUX_BASIS	rimp2-cc-pvtz
SOLVENT_METHOD	PCM
PURECART	11111
SYMMETRY	false
MEM_TOTAL	110000
SCF_CONVERGENCE = 6
THRESH=10
$end

$solvent
dielectric 4.90
$end
--------------------------------------------------------------

             Standard Nuclear Orientation (Angstroms)
    I     Atom           X                Y                Z
 ----------------------------------------------------------------
    1      C      -0.1353010000    -3.8667250000     0.7632280000
    2      C       0.1060730000    -3.7039630000    -0.6033110000
    3      C       0.1852860000    -2.3570560000    -1.0504230000
    4      H       0.2257830000    -4.5610920000    -1.2831880000
    5      C       0.0000000000    -1.4406640000     0.0000000000
    6      S      -0.2681870000    -2.2869570000     1.5210210000
    7      C       0.4382090000    -1.9787430000    -2.4835070000
    8      H       0.5501530000    -2.8786780000    -3.1187980000
    9      H       1.3639060000    -1.3760150000    -2.5933810000
   10      H      -0.3937980000    -1.3757280000    -2.9035160000
   11      C       0.0000000000     0.0000000000     0.0000000000
   12      C       0.1499950000     0.8504750000     1.0994460000
   13      C       0.3903270000     2.2133540000     0.7767210000
   14      H       0.0859470000     0.4872790000     2.1360880000
   15      C       0.4286650000     2.4306550000    -0.6125460000
   16      S       0.1636700000     0.9280780000    -1.4868090000
   17      C       0.5792350000     3.2845740000     1.8146090000
   18      H       0.5053230000     2.8654040000     2.8366760000
   19      H      -0.1859800000     4.0838900000     1.7262390000
   20      H       1.5716980000     3.7739370000     1.7262280000
   21      H       0.5935150000     3.3654480000    -1.1615750000
   22      H       0.6886740000    -4.3927130000     1.2581110000
   23      H      -1.0790840000    -4.3923470000     0.9462720000
   24      H       1.0635720000    -1.4409370000     0.1876540000
 ----------------------------------------------------------------

   10   -1180.7572154180      5.02e-07  Convergence criterion met
 Total energy in the final basis set =    -1180.7572154180
        RIMP2         total energy =     -1182.7633670569 a.u.

                    Orbital Energies (a.u.)
 --------------------------------------------------------------

 Alpha MOs
 -- Occupied --
-91.9814 -91.9466 -11.2912 -11.2661 -11.2627 -11.2524 -11.2499 -11.2444
-11.2328 -11.2295 -11.2274 -11.2233  -8.9814  -8.9512  -6.6624  -6.6618
 -6.6611  -6.6326  -6.6316  -6.6303  -1.2032  -1.1521  -1.0612  -1.0288
 -1.0069  -0.9559  -0.9165  -0.9016  -0.8148  -0.7724  -0.7174  -0.7034
 -0.6625  -0.6485  -0.6112  -0.5904  -0.5826  -0.5719  -0.5682  -0.5544
 -0.5425  -0.5341  -0.5163  -0.5096  -0.4900  -0.4836  -0.4575  -0.4458
 -0.3590  -0.3418  -0.3264  -0.2646

          Ground-State Mulliken Net Atomic Charges

     Atom                 Charge (a.u.)
  ----------------------------------------
      1 C                    -0.074406
      2 C                    -0.315837
      3 C                    -0.048212
      4 H                     0.179227
      5 C                     0.118843
      6 S                    -0.184660
      7 C                    -0.309717
      8 H                     0.121065
      9 H                     0.113725
     10 H                     0.112791
     11 C                    -0.003841
     12 C                    -0.319318
     13 C                     0.044655
     14 H                     0.176652
     15 C                    -0.282588
     16 S                     0.007538
     17 C                    -0.271722
     18 H                     0.102594
     19 H                     0.108455
     20 H                     0.108228
     21 H                     0.196219
     22 H                     0.111492
     23 H                     0.113951
     24 H                     0.194866
  ----------------------------------------
  Sum of atomic charges =     0.000000

                    Cartesian Multipole Moments
 -----------------------------------------------------------------
    Charge (ESU x 10^10)
                -0.0000
    Dipole Moment (Debye)
         X       1.5382      Y      -0.5638      Z      -0.9198
       Tot       1.8788
    Quadrupole Moments (Debye-Ang)
        XX     -91.5328     XY      -0.3959     YY     -73.4456
        XZ       0.3856     YZ       4.3465     ZZ     -85.4590

 Total job time:  653.81s(wall), 650.70s(cpu)
        *  Thank you very much for using Q-Chem.  Have a nice day.  *
