 Q-Chem 5.4, Q-Chem, Inc., Pleasanton, CA (2021)
 Q-Chem 5.4.0 for Intel X86 EM64T Linux

User input:
--------------------------------------------------------------
$molecule
0 1
C	0.775127	-3.866725	0.000713
C	-0.612565	-3.703963	0.000302
C	-1.066639	-2.357056	-0.000067
H	-1.302900	-4.561092	0.000470
C	0.000000	-1.440664	0.000000
S	1.544483	-2.286957	-0.000009
C	-2.521872	-1.978743	-0.000295
H	-3.166949	-2.878678	-0.000221
H	-2.790821	-1.376015	-0.892850
H	-2.791023	-1.375728	0.892005
C	0.000000	0.000000	0.000000
C	0.223548	0.834165	1.099446
C	0.581748	2.170912	0.776721
H	0.128089	0.477934	2.136088
C	0.638880	2.384045	-0.612546
S	0.243934	0.910282	-1.486809
C	0.863301	3.221592	1.814609
H	0.753137	2.810458	2.836676
H	0.170663	4.084559	1.726239
H	1.894637	3.622593	1.726228
H	0.884575	3.300913	-1.161575
H	1.119411	-4.392713	-0.896681
H	1.119277	-4.392347	0.898372
H	0.000115	-1.440937	-1.080000
$end

$rem
JOBTYPE		SP
EXCHANGE	HF
CORRELATION	pRIMP2
BASIS		cc-pvtz
METHOD		rimp2
AUX_BASIS	rimp2-cc-pvtz
SOLVENT_METHOD	PCM
PURECART	11111
SYMMETRY	false
MEM_TOTAL	110000
SCF_CONVERGENCE = 6
THRESH=10
$end

$solvent
dielectric 4.90
$end
--------------------------------------------------------------

             Standard Nuclear Orientation (Angstroms)
    I     Atom           X                Y                Z
 ----------------------------------------------------------------
    1      C       0.7751270000    -3.8667250000     0.0007130000
    2      C      -0.6125650000    -3.7039630000     0.0003020000
    3      C      -1.0666390000    -2.3570560000    -0.0000670000
    4      H      -1.3029000000    -4.5610920000     0.0004700000
    5      C       0.0000000000    -1.4406640000     0.0000000000
    6      S       1.5444830000    -2.2869570000    -0.0000090000
    7      C      -2.5218720000    -1.9787430000    -0.0002950000
    8      H      -3.1669490000    -2.8786780000    -0.0002210000
    9      H      -2.7908210000    -1.3760150000    -0.8928500000
   10      H      -2.7910230000    -1.3757280000     0.8920050000
   11      C       0.0000000000     0.0000000000     0.0000000000
   12      C       0.2235480000     0.8341650000     1.0994460000
   13      C       0.5817480000     2.1709120000     0.7767210000
   14      H       0.1280890000     0.4779340000     2.1360880000
   15      C       0.6388800000     2.3840450000    -0.6125460000
   16      S       0.2439340000     0.9102820000    -1.4868090000
   17      C       0.8633010000     3.2215920000     1.8146090000
   18      H       0.7531370000     2.8104580000     2.8366760000
   19      H       0.1706630000     4.0845590000     1.7262390000
   20      H       1.8946370000     3.6225930000     1.7262280000
   21      H       0.8845750000     3.3009130000    -1.1615750000
   22      H       1.1194110000    -4.3927130000    -0.8966810000
   23      H       1.1192770000    -4.3923470000     0.8983720000
   24      H       0.0001150000    -1.4409370000    -1.0800000000
 ----------------------------------------------------------------

   10   -1180.7561895252      5.11e-07  Convergence criterion met
 Total energy in the final basis set =    -1180.7561895252
        RIMP2         total energy =     -1182.7612233319 a.u.

                    Orbital Energies (a.u.)
 --------------------------------------------------------------

 Alpha MOs
 -- Occupied --
-91.9862 -91.9410 -11.2769 -11.2665 -11.2617 -11.2544 -11.2509 -11.2403
-11.2395 -11.2313 -11.2287 -11.2179  -8.9859  -8.9456  -6.6668  -6.6663
 -6.6656  -6.6270  -6.6260  -6.6247  -1.1980  -1.1536  -1.0584  -1.0262
 -1.0024  -0.9626  -0.9127  -0.9002  -0.8127  -0.7626  -0.7409  -0.7031
 -0.6535  -0.6334  -0.6109  -0.5874  -0.5775  -0.5726  -0.5680  -0.5537
 -0.5424  -0.5301  -0.5112  -0.5062  -0.4900  -0.4815  -0.4641  -0.4482
 -0.3568  -0.3398  -0.3116  -0.2823

          Ground-State Mulliken Net Atomic Charges

     Atom                 Charge (a.u.)
  ----------------------------------------
      1 C                    -0.074419
      2 C                    -0.326441
      3 C                    -0.039716
      4 H                     0.175696
      5 C                     0.106460
      6 S                    -0.173523
      7 C                    -0.267510
      8 H                     0.112047
      9 H                     0.101992
     10 H                     0.105334
     11 C                    -0.103441
     12 C                    -0.229313
     13 C                     0.027271
     14 H                     0.184399
     15 C                    -0.243436
     16 S                     0.015082
     17 C                    -0.271890
     18 H                     0.102885
     19 H                     0.107438
     20 H                     0.108285
     21 H                     0.198895
     22 H                     0.109675
     23 H                     0.111792
     24 H                     0.162437
  ----------------------------------------
  Sum of atomic charges =     0.000000

                    Cartesian Multipole Moments
 -----------------------------------------------------------------
    Charge (ESU x 10^10)
                -0.0000
    Dipole Moment (Debye)
         X      -1.8865      Y       0.7684      Z       0.7406
       Tot       2.1675
    Quadrupole Moments (Debye-Ang)
        XX     -90.9959     XY       6.3267     YY     -74.4744
        XZ      -0.0385     YZ       2.2623     ZZ     -85.8485

 Total job time:  642.09s(wall), 640.10s(cpu)
        *  Thank you very much for using Q-Chem.  Have a nice day.  *
