 Q-Chem 5.4, Q-Chem, Inc., Pleasanton, CA (2021)
 Q-Chem 5.4.0 for Intel X86 EM64T Linux

User input:
--------------------------------------------------------------
$molecule
0 1
C	0.728138	-3.866725	0.265779
C	-0.575726	-3.703963	-0.209225
C	-1.002290	-2.357056	-0.364875
H	-1.224486	-4.561092	-0.445176
C	-0.000000	-1.440664	-0.000000
S	1.451343	-2.286957	0.528236
C	-2.369683	-1.978743	-0.862808
H	-2.975883	-2.878678	-1.083368
H	-2.317142	-1.376015	-1.793522
H	-2.927787	-1.375728	-0.116375
C	0.000000	0.000000	0.000000
C	0.431829	0.747884	1.099446
C	1.123799	1.946373	0.776721
H	0.247423	0.428497	2.136088
C	1.234147	2.137457	-0.612546
S	0.471221	0.816130	-1.486809
C	1.667694	2.888380	1.814609
H	1.454874	2.519768	2.836676
H	1.222009	3.901210	1.726239
H	2.767675	3.008788	1.726228
H	1.708773	2.959493	-1.161575
H	1.358585	-4.392713	-0.459743
H	0.744515	-4.392347	1.227009
H	0.369490	-1.440937	-1.014829
$end

$rem
JOBTYPE		SP
EXCHANGE	HF
CORRELATION	pRIMP2
BASIS		cc-pvtz
METHOD		rimp2
AUX_BASIS	rimp2-cc-pvtz
SOLVENT_METHOD	PCM
PURECART	11111
SYMMETRY	false
MEM_TOTAL	110000
SCF_CONVERGENCE = 6
THRESH=10
$end

$solvent
dielectric 4.90
$end
--------------------------------------------------------------

   10   -1180.7423318615      5.40e-07  Convergence criterion met
 Total energy in the final basis set =    -1180.7423318615
        RIMP2         total energy =     -1182.7504814353 a.u.
 Total job time:  644.04s(wall), 640.97s(cpu)
        *  Thank you very much for using Q-Chem.  Have a nice day.  *
 Q-Chem 5.4, Q-Chem, Inc., Pleasanton, CA (2021)
 Q-Chem 5.4.0 for Intel X86 EM64T Linux

User input:
--------------------------------------------------------------
$molecule
0 1
C	0.728138	-3.866725	0.265779
C	-0.575726	-3.703963	-0.209225
C	-1.002290	-2.357056	-0.364875
H	-1.224486	-4.561092	-0.445176
C	-0.000000	-1.440664	-0.000000
S	1.451343	-2.286957	0.528236
C	-2.369683	-1.978743	-0.862808
H	-2.975883	-2.878678	-1.083368
H	-2.317142	-1.376015	-1.793522
H	-2.927787	-1.375728	-0.116375
C	0.000000	0.000000	0.000000
C	0.431829	0.747884	1.099446
C	1.123799	1.946373	0.776721
H	0.247423	0.428497	2.136088
C	1.234147	2.137457	-0.612546
S	0.471221	0.816130	-1.486809
C	1.667694	2.888380	1.814609
H	1.454874	2.519768	2.836676
H	1.222009	3.901210	1.726239
H	2.767675	3.008788	1.726228
H	1.708773	2.959493	-1.161575
H	1.358585	-4.392713	-0.459743
H	0.744515	-4.392347	1.227009
H	0.369490	-1.440937	-1.014829
$end

$rem
JOBTYPE		SP
EXCHANGE	HF
CORRELATION	pRIMP2
BASIS		cc-pvtz
METHOD		rimp2
AUX_BASIS	rimp2-cc-pvtz
SOLVENT_METHOD	PCM
PURECART	11111
SYMMETRY	false
MEM_TOTAL	110000
SCF_CONVERGENCE = 6
THRESH=10
$end

$solvent
dielectric 4.90
$end
--------------------------------------------------------------

             Standard Nuclear Orientation (Angstroms)
    I     Atom           X                Y                Z
 ----------------------------------------------------------------
    1      C       0.7281380000    -3.8667250000     0.2657790000
    2      C      -0.5757260000    -3.7039630000    -0.2092250000
    3      C      -1.0022900000    -2.3570560000    -0.3648750000
    4      H      -1.2244860000    -4.5610920000    -0.4451760000
    5      C       0.0000000000    -1.4406640000     0.0000000000
    6      S       1.4513430000    -2.2869570000     0.5282360000
    7      C      -2.3696830000    -1.9787430000    -0.8628080000
    8      H      -2.9758830000    -2.8786780000    -1.0833680000
    9      H      -2.3171420000    -1.3760150000    -1.7935220000
   10      H      -2.9277870000    -1.3757280000    -0.1163750000
   11      C       0.0000000000     0.0000000000     0.0000000000
   12      C       0.4318290000     0.7478840000     1.0994460000
   13      C       1.1237990000     1.9463730000     0.7767210000
   14      H       0.2474230000     0.4284970000     2.1360880000
   15      C       1.2341470000     2.1374570000    -0.6125460000
   16      S       0.4712210000     0.8161300000    -1.4868090000
   17      C       1.6676940000     2.8883800000     1.8146090000
   18      H       1.4548740000     2.5197680000     2.8366760000
   19      H       1.2220090000     3.9012100000     1.7262390000
   20      H       2.7676750000     3.0087880000     1.7262280000
   21      H       1.7087730000     2.9594930000    -1.1615750000
   22      H       1.3585850000    -4.3927130000    -0.4597430000
   23      H       0.7445150000    -4.3923470000     1.2270090000
   24      H       0.3694900000    -1.4409370000    -1.0148290000
 ----------------------------------------------------------------

   10   -1180.7423318615      5.40e-07  Convergence criterion met
 Total energy in the final basis set =    -1180.7423318615
        RIMP2         total energy =     -1182.7504814353 a.u.

                    Orbital Energies (a.u.)
 --------------------------------------------------------------

 Alpha MOs
 -- Occupied --
-91.9833 -91.9407 -11.2739 -11.2692 -11.2596 -11.2526 -11.2511 -11.2430
-11.2393 -11.2310 -11.2288 -11.2162  -8.9836  -8.9453  -6.6645  -6.6638
 -6.6632  -6.6267  -6.6257  -6.6244  -1.1994  -1.1535  -1.0587  -1.0256
 -1.0028  -0.9615  -0.9129  -0.9001  -0.8110  -0.7656  -0.7368  -0.7030
 -0.6529  -0.6337  -0.6114  -0.5881  -0.5770  -0.5745  -0.5678  -0.5528
 -0.5419  -0.5318  -0.5113  -0.5070  -0.4868  -0.4779  -0.4638  -0.4464
 -0.3559  -0.3408  -0.3160  -0.2757

          Ground-State Mulliken Net Atomic Charges

     Atom                 Charge (a.u.)
  ----------------------------------------
      1 C                    -0.074907
      2 C                    -0.328585
      3 C                    -0.042846
      4 H                     0.174205
      5 C                     0.083161
      6 S                    -0.176962
      7 C                    -0.271276
      8 H                     0.113233
      9 H                     0.100147
     10 H                     0.108024
     11 C                    -0.061225
     12 C                    -0.272832
     13 C                     0.052648
     14 H                     0.185457
     15 C                    -0.236789
     16 S                     0.010402
     17 C                    -0.269694
     18 H                     0.103046
     19 H                     0.107773
     20 H                     0.108026
     21 H                     0.198982
     22 H                     0.109332
     23 H                     0.109222
     24 H                     0.171460
  ----------------------------------------
  Sum of atomic charges =     0.000000

                    Cartesian Multipole Moments
 -----------------------------------------------------------------
    Charge (ESU x 10^10)
                -0.0000
    Dipole Moment (Debye)
         X      -0.9185      Y       0.7729      Z       0.0560
       Tot       1.2017
    Quadrupole Moments (Debye-Ang)
        XX     -88.7515     XY       7.6606     YY     -76.9511
        XZ       0.3008     YZ       3.3430     ZZ     -85.9001

 Total job time:  645.63s(wall), 640.82s(cpu)
        *  Thank you very much for using Q-Chem.  Have a nice day.  *
