 Q-Chem 5.4, Q-Chem, Inc., Pleasanton, CA (2021)
 Q-Chem 5.4.0 for Intel X86 EM64T Linux

User input:
--------------------------------------------------------------
$molecule
0 1
C	-0.388181	-3.866725	0.670924
C	0.306020	-3.703963	-0.530648
C	0.533378	-2.357056	-0.923703
H	0.651043	-4.561092	-1.128579
C	-0.000000	-1.440664	-0.000000
S	-0.772234	-2.286957	1.337567
C	1.261192	-1.978743	-2.183857
H	1.583666	-2.878678	-2.742548
H	2.168641	-1.376015	-1.970497
H	0.623012	-1.375728	-2.863099
C	0.000000	0.000000	0.000000
C	0.149995	0.850475	1.099446
C	0.390327	2.213354	0.776721
H	0.085947	0.487279	2.136088
C	0.428665	2.430655	-0.612546
S	0.163670	0.928078	-1.486809
C	0.579235	3.284574	1.814609
H	0.505323	2.865404	2.836676
H	-0.185980	4.083890	1.726239
H	1.571698	3.773937	1.726228
H	0.593515	3.365448	-1.161575
H	0.216843	-4.392713	1.417779
H	-1.337652	-4.392347	0.520136
H	-0.935250	-1.440391	-0.540100
$end

$rem
JOBTYPE		SP
EXCHANGE	HF
CORRELATION	pRIMP2
BASIS		cc-pvtz
METHOD		rimp2
AUX_BASIS	rimp2-cc-pvtz
SOLVENT_METHOD	PCM
PURECART	11111
SYMMETRY	false
MEM_TOTAL	110000
SCF_CONVERGENCE = 6
THRESH=10
$end

$solvent
dielectric 4.90
$end
--------------------------------------------------------------

             Standard Nuclear Orientation (Angstroms)
    I     Atom           X                Y                Z
 ----------------------------------------------------------------
    1      C      -0.3881810000    -3.8667250000     0.6709240000
    2      C       0.3060200000    -3.7039630000    -0.5306480000
    3      C       0.5333780000    -2.3570560000    -0.9237030000
    4      H       0.6510430000    -4.5610920000    -1.1285790000
    5      C       0.0000000000    -1.4406640000     0.0000000000
    6      S      -0.7722340000    -2.2869570000     1.3375670000
    7      C       1.2611920000    -1.9787430000    -2.1838570000
    8      H       1.5836660000    -2.8786780000    -2.7425480000
    9      H       2.1686410000    -1.3760150000    -1.9704970000
   10      H       0.6230120000    -1.3757280000    -2.8630990000
   11      C       0.0000000000     0.0000000000     0.0000000000
   12      C       0.1499950000     0.8504750000     1.0994460000
   13      C       0.3903270000     2.2133540000     0.7767210000
   14      H       0.0859470000     0.4872790000     2.1360880000
   15      C       0.4286650000     2.4306550000    -0.6125460000
   16      S       0.1636700000     0.9280780000    -1.4868090000
   17      C       0.5792350000     3.2845740000     1.8146090000
   18      H       0.5053230000     2.8654040000     2.8366760000
   19      H      -0.1859800000     4.0838900000     1.7262390000
   20      H       1.5716980000     3.7739370000     1.7262280000
   21      H       0.5935150000     3.3654480000    -1.1615750000
   22      H       0.2168430000    -4.3927130000     1.4177790000
   23      H      -1.3376520000    -4.3923470000     0.5201360000
   24      H      -0.9352500000    -1.4403910000    -0.5401000000
 ----------------------------------------------------------------

   10   -1180.7553594701      4.95e-07  Convergence criterion met
 Total energy in the final basis set =    -1180.7553594701
        RIMP2         total energy =     -1182.7616322722 a.u.

                    Orbital Energies (a.u.)
 --------------------------------------------------------------

 Alpha MOs
 -- Occupied --
-91.9822 -91.9453 -11.2863 -11.2656 -11.2596 -11.2577 -11.2497 -11.2433
-11.2331 -11.2319 -11.2276 -11.2220  -8.9823  -8.9497  -6.6632  -6.6627
 -6.6620  -6.6311  -6.6301  -6.6289  -1.2012  -1.1526  -1.0604  -1.0270
 -1.0060  -0.9584  -0.9153  -0.9014  -0.8138  -0.7712  -0.7231  -0.7052
 -0.6559  -0.6439  -0.6106  -0.5933  -0.5799  -0.5723  -0.5688  -0.5530
 -0.5421  -0.5329  -0.5149  -0.5094  -0.4892  -0.4822  -0.4592  -0.4459
 -0.3576  -0.3421  -0.3240  -0.2679

          Ground-State Mulliken Net Atomic Charges

     Atom                 Charge (a.u.)
  ----------------------------------------
      1 C                    -0.073857
      2 C                    -0.322051
      3 C                    -0.052846
      4 H                     0.178394
      5 C                     0.143637
      6 S                    -0.180710
      7 C                    -0.292340
      8 H                     0.117016
      9 H                     0.119299
     10 H                     0.103815
     11 C                    -0.082702
     12 C                    -0.258562
     13 C                     0.024809
     14 H                     0.184394
     15 C                    -0.255129
     16 S                    -0.000783
     17 C                    -0.272632
     18 H                     0.102748
     19 H                     0.108171
     20 H                     0.107899
     21 H                     0.197139
     22 H                     0.112333
     23 H                     0.113171
     24 H                     0.178787
  ----------------------------------------
  Sum of atomic charges =     0.000000

                    Cartesian Multipole Moments
 -----------------------------------------------------------------
    Charge (ESU x 10^10)
                -0.0000
    Dipole Moment (Debye)
         X       0.7956      Y      -0.1060      Z      -1.1525
       Tot       1.4045
    Quadrupole Moments (Debye-Ang)
        XX     -91.1423     XY       1.2986     YY     -73.5261
        XZ      -0.2333     YZ       4.8449     ZZ     -85.9831

 Total job time:  655.15s(wall), 651.24s(cpu)
        *  Thank you very much for using Q-Chem.  Have a nice day.  *
