 Q-Chem 5.4, Q-Chem, Inc., Pleasanton, CA (2021)
 Q-Chem 5.4.0 for Intel X86 EM64T Linux

User input:
--------------------------------------------------------------
$molecule
0 1
C	-0.498788	-3.866725	0.593324
C	0.393517	-3.703963	-0.469446
C	0.685674	-2.357056	-0.817050
H	0.837128	-4.561092	-0.998381
C	-0.000000	-1.440664	-0.000000
S	-0.992768	-2.286957	1.183149
C	1.621254	-1.978743	-1.931676
H	2.035845	-2.878678	-2.425882
H	2.477868	-1.376015	-1.563980
H	1.110719	-1.375728	-2.711417
C	0.000000	0.000000	0.000000
C	0.555137	0.661535	1.099446
C	1.444710	1.721658	0.776721
H	0.318072	0.379023	2.136088
C	1.586563	1.890676	-0.612546
S	0.605781	0.721904	-1.486809
C	2.143920	2.554907	1.814609
H	1.870325	2.228851	2.836676
H	1.880882	3.629742	1.726239
H	3.248098	2.482476	1.726228
H	2.196723	2.617806	-1.161575
H	-0.032646	-4.392713	1.433894
H	-1.407651	-4.392347	0.279954
H	-0.827254	-1.440391	-0.694299
$end

$rem
JOBTYPE		SP
EXCHANGE	HF
CORRELATION	pRIMP2
BASIS		cc-pvtz
METHOD		rimp2
AUX_BASIS	rimp2-cc-pvtz
SOLVENT_METHOD	PCM
PURECART	11111
SYMMETRY	false
MEM_TOTAL	110000
SCF_CONVERGENCE = 6
THRESH=10
$end

$solvent
dielectric 4.90
$end
--------------------------------------------------------------

             Standard Nuclear Orientation (Angstroms)
    I     Atom           X                Y                Z
 ----------------------------------------------------------------
    1      C      -0.4987880000    -3.8667250000     0.5933240000
    2      C       0.3935170000    -3.7039630000    -0.4694460000
    3      C       0.6856740000    -2.3570560000    -0.8170500000
    4      H       0.8371280000    -4.5610920000    -0.9983810000
    5      C       0.0000000000    -1.4406640000     0.0000000000
    6      S      -0.9927680000    -2.2869570000     1.1831490000
    7      C       1.6212540000    -1.9787430000    -1.9316760000
    8      H       2.0358450000    -2.8786780000    -2.4258820000
    9      H       2.4778680000    -1.3760150000    -1.5639800000
   10      H       1.1107190000    -1.3757280000    -2.7114170000
   11      C       0.0000000000     0.0000000000     0.0000000000
   12      C       0.5551370000     0.6615350000     1.0994460000
   13      C       1.4447100000     1.7216580000     0.7767210000
   14      H       0.3180720000     0.3790230000     2.1360880000
   15      C       1.5865630000     1.8906760000    -0.6125460000
   16      S       0.6057810000     0.7219040000    -1.4868090000
   17      C       2.1439200000     2.5549070000     1.8146090000
   18      H       1.8703250000     2.2288510000     2.8366760000
   19      H       1.8808820000     3.6297420000     1.7262390000
   20      H       3.2480980000     2.4824760000     1.7262280000
   21      H       2.1967230000     2.6178060000    -1.1615750000
   22      H      -0.0326460000    -4.3927130000     1.4338940000
   23      H      -1.4076510000    -4.3923470000     0.2799540000
   24      H      -0.8272540000    -1.4403910000    -0.6942990000
 ----------------------------------------------------------------

   10   -1180.7125615593      7.64e-07  Convergence criterion met
 Total energy in the final basis set =    -1180.7125615593
        RIMP2         total energy =     -1182.7308455075 a.u.

                    Orbital Energies (a.u.)
 --------------------------------------------------------------

 Alpha MOs
 -- Occupied --
-91.9804 -91.9403 -11.2718 -11.2684 -11.2625 -11.2526 -11.2505 -11.2427
-11.2398 -11.2286 -11.2274 -11.2165  -8.9813  -8.9448  -6.6621  -6.6614
 -6.6610  -6.6262  -6.6252  -6.6240  -1.2002  -1.1531  -1.0589  -1.0238
 -1.0057  -0.9600  -0.9115  -0.9030  -0.8076  -0.7704  -0.7276  -0.7078
 -0.6513  -0.6365  -0.6116  -0.5928  -0.5800  -0.5729  -0.5692  -0.5509
 -0.5414  -0.5281  -0.5171  -0.5132  -0.4890  -0.4632  -0.4564  -0.4420
 -0.3537  -0.3389  -0.3210  -0.2663

          Ground-State Mulliken Net Atomic Charges

     Atom                 Charge (a.u.)
  ----------------------------------------
      1 C                    -0.067955
      2 C                    -0.334563
      3 C                    -0.040288
      4 H                     0.176876
      5 C                     0.060690
      6 S                    -0.192707
      7 C                    -0.274812
      8 H                     0.110425
      9 H                     0.115949
     10 H                     0.104799
     11 C                    -0.110088
     12 C                    -0.182549
     13 C                     0.007489
     14 H                     0.188606
     15 C                    -0.218144
     16 S                     0.011059
     17 C                    -0.269538
     18 H                     0.102906
     19 H                     0.107350
     20 H                     0.105775
     21 H                     0.199413
     22 H                     0.110280
     23 H                     0.108458
     24 H                     0.180567
  ----------------------------------------
  Sum of atomic charges =     0.000000

                    Cartesian Multipole Moments
 -----------------------------------------------------------------
    Charge (ESU x 10^10)
                -0.0000
    Dipole Moment (Debye)
         X       2.5521      Y       0.6248      Z      -1.0645
       Tot       2.8349
    Quadrupole Moments (Debye-Ang)
        XX     -86.8422     XY       4.4347     YY     -79.2159
        XZ       0.1627     YZ       4.2010     ZZ     -85.7423

 Total job time:  711.40s(wall), 707.22s(cpu)
        *  Thank you very much for using Q-Chem.  Have a nice day.  *
