 Q-Chem 5.4, Q-Chem, Inc., Pleasanton, CA (2021)
 Q-Chem 5.4.0 for Intel X86 EM64T Linux

User input:
--------------------------------------------------------------
$molecule
0 1
C	0.775127	-3.866725	0.000713
C	-0.612565	-3.703963	0.000302
C	-1.066639	-2.357056	-0.000067
H	-1.302900	-4.561092	0.000470
C	0.000000	-1.440664	0.000000
S	1.544483	-2.286957	-0.000009
C	-2.521872	-1.978743	-0.000295
H	-3.166949	-2.878678	-0.000221
H	-2.790821	-1.376015	-0.892850
H	-2.791023	-1.375728	0.892005
C	0.000000	0.000000	0.000000
C	0.661577	0.555087	1.099446
C	1.721724	1.444630	0.776721
H	0.379056	0.318032	2.136088
C	1.890772	1.586449	-0.612546
S	0.721935	0.605744	-1.486809
C	2.555004	2.143805	1.814609
H	2.228946	1.870211	2.836676
H	2.482605	3.247987	1.726239
H	3.629830	1.880735	1.726228
H	2.617927	2.196579	-1.161575
H	1.119411	-4.392713	-0.896681
H	1.119277	-4.392347	0.898372
H	0.000115	-1.440937	-1.080000
$end

$rem
JOBTYPE		SP
EXCHANGE	HF
CORRELATION	pRIMP2
BASIS		cc-pvtz
METHOD		rimp2
AUX_BASIS	rimp2-cc-pvtz
SOLVENT_METHOD	PCM
PURECART	11111
SYMMETRY	false
MEM_TOTAL	110000
SCF_CONVERGENCE = 6
THRESH=10
$end

$solvent
dielectric 4.90
$end
--------------------------------------------------------------

             Standard Nuclear Orientation (Angstroms)
    I     Atom           X                Y                Z
 ----------------------------------------------------------------
    1      C       0.7751270000    -3.8667250000     0.0007130000
    2      C      -0.6125650000    -3.7039630000     0.0003020000
    3      C      -1.0666390000    -2.3570560000    -0.0000670000
    4      H      -1.3029000000    -4.5610920000     0.0004700000
    5      C       0.0000000000    -1.4406640000     0.0000000000
    6      S       1.5444830000    -2.2869570000    -0.0000090000
    7      C      -2.5218720000    -1.9787430000    -0.0002950000
    8      H      -3.1669490000    -2.8786780000    -0.0002210000
    9      H      -2.7908210000    -1.3760150000    -0.8928500000
   10      H      -2.7910230000    -1.3757280000     0.8920050000
   11      C       0.0000000000     0.0000000000     0.0000000000
   12      C       0.6615770000     0.5550870000     1.0994460000
   13      C       1.7217240000     1.4446300000     0.7767210000
   14      H       0.3790560000     0.3180320000     2.1360880000
   15      C       1.8907720000     1.5864490000    -0.6125460000
   16      S       0.7219350000     0.6057440000    -1.4868090000
   17      C       2.5550040000     2.1438050000     1.8146090000
   18      H       2.2289460000     1.8702110000     2.8366760000
   19      H       2.4826050000     3.2479870000     1.7262390000
   20      H       3.6298300000     1.8807350000     1.7262280000
   21      H       2.6179270000     2.1965790000    -1.1615750000
   22      H       1.1194110000    -4.3927130000    -0.8966810000
   23      H       1.1192770000    -4.3923470000     0.8983720000
   24      H       0.0001150000    -1.4409370000    -1.0800000000
 ----------------------------------------------------------------

   10   -1180.7089895591      7.25e-07  Convergence criterion met
 Total energy in the final basis set =    -1180.7089895591
        RIMP2         total energy =     -1182.7249685490 a.u.

                    Orbital Energies (a.u.)
 --------------------------------------------------------------

 Alpha MOs
 -- Occupied --
-91.9817 -91.9351 -11.2822 -11.2572 -11.2561 -11.2535 -11.2514 -11.2490
-11.2371 -11.2294 -11.2292 -11.2118  -8.9824  -8.9401  -6.6633  -6.6625
 -6.6621  -6.6215  -6.6205  -6.6192  -1.2020  -1.1534  -1.0584  -1.0247
 -1.0010  -0.9633  -0.9104  -0.9003  -0.8083  -0.7622  -0.7446  -0.7030
 -0.6500  -0.6283  -0.6140  -0.5864  -0.5777  -0.5758  -0.5657  -0.5513
 -0.5412  -0.5321  -0.5070  -0.5059  -0.4877  -0.4683  -0.4620  -0.4441
 -0.3599  -0.3314  -0.3134  -0.2767

          Ground-State Mulliken Net Atomic Charges

     Atom                 Charge (a.u.)
  ----------------------------------------
      1 C                    -0.078450
      2 C                    -0.332790
      3 C                    -0.054115
      4 H                     0.173154
      5 C                     0.062825
      6 S                    -0.186900
      7 C                    -0.271855
      8 H                     0.112418
      9 H                     0.101706
     10 H                     0.104583
     11 C                    -0.125394
     12 C                    -0.163679
     13 C                     0.012725
     14 H                     0.184005
     15 C                    -0.191270
     16 S                     0.017833
     17 C                    -0.268245
     18 H                     0.102945
     19 H                     0.107765
     20 H                     0.106946
     21 H                     0.201100
     22 H                     0.107587
     23 H                     0.109938
     24 H                     0.167168
  ----------------------------------------
  Sum of atomic charges =     0.000000

                    Cartesian Multipole Moments
 -----------------------------------------------------------------
    Charge (ESU x 10^10)
                -0.0000
    Dipole Moment (Debye)
         X      -0.1994      Y       1.0707      Z       0.9011
       Tot       1.4135
    Quadrupole Moments (Debye-Ang)
        XX     -84.8245     XY       9.5964     YY     -81.7445
        XZ       0.1836     YZ       1.8810     ZZ     -85.2651

 Total job time:  668.69s(wall), 665.00s(cpu)
        *  Thank you very much for using Q-Chem.  Have a nice day.  *
