 Q-Chem 5.4, Q-Chem, Inc., Pleasanton, CA (2021)
 Q-Chem 5.4.0 for Intel X86 EM64T Linux

User input:
--------------------------------------------------------------
$molecule
0 1
C	-0.728138	-3.866725	-0.265779
C	0.575726	-3.703963	0.209225
C	1.002290	-2.357056	0.364875
H	1.224486	-4.561092	0.445176
C	-0.000000	-1.440664	-0.000000
S	-1.451343	-2.286957	-0.528236
C	2.369683	-1.978743	0.862808
H	2.975883	-2.878678	1.083368
H	2.317142	-1.376015	1.793522
H	2.927787	-1.375728	0.116375
C	0.000000	0.000000	0.000000
C	0.075300	0.860311	1.099446
C	0.195935	2.238951	0.776721
H	0.043151	0.492916	2.136088
C	0.215188	2.458766	-0.612546
S	0.082160	0.938811	-1.486809
C	0.290762	3.322559	1.814609
H	0.253664	2.898542	2.836676
H	-0.541206	4.052140	1.726239
H	1.236797	3.896558	1.726228
H	0.297938	3.404370	-1.161575
H	-1.358585	-4.392713	0.459743
H	-0.744515	-4.392347	-1.227009
H	0.369490	-1.440391	-1.014829
$end

$rem
JOBTYPE		SP
EXCHANGE	HF
CORRELATION	pRIMP2
BASIS		cc-pvtz
METHOD		rimp2
AUX_BASIS	rimp2-cc-pvtz
SOLVENT_METHOD	PCM
PURECART	11111
SYMMETRY	false
MEM_TOTAL	110000
SCF_CONVERGENCE = 6
THRESH=10
$end

$solvent
dielectric 4.90
$end
--------------------------------------------------------------

             Standard Nuclear Orientation (Angstroms)
    I     Atom           X                Y                Z
 ----------------------------------------------------------------
    1      C      -0.7281380000    -3.8667250000    -0.2657790000
    2      C       0.5757260000    -3.7039630000     0.2092250000
    3      C       1.0022900000    -2.3570560000     0.3648750000
    4      H       1.2244860000    -4.5610920000     0.4451760000
    5      C       0.0000000000    -1.4406640000     0.0000000000
    6      S      -1.4513430000    -2.2869570000    -0.5282360000
    7      C       2.3696830000    -1.9787430000     0.8628080000
    8      H       2.9758830000    -2.8786780000     1.0833680000
    9      H       2.3171420000    -1.3760150000     1.7935220000
   10      H       2.9277870000    -1.3757280000     0.1163750000
   11      C       0.0000000000     0.0000000000     0.0000000000
   12      C       0.0753000000     0.8603110000     1.0994460000
   13      C       0.1959350000     2.2389510000     0.7767210000
   14      H       0.0431510000     0.4929160000     2.1360880000
   15      C       0.2151880000     2.4587660000    -0.6125460000
   16      S       0.0821600000     0.9388110000    -1.4868090000
   17      C       0.2907620000     3.3225590000     1.8146090000
   18      H       0.2536640000     2.8985420000     2.8366760000
   19      H      -0.5412060000     4.0521400000     1.7262390000
   20      H       1.2367970000     3.8965580000     1.7262280000
   21      H       0.2979380000     3.4043700000    -1.1615750000
   22      H      -1.3585850000    -4.3927130000     0.4597430000
   23      H      -0.7445150000    -4.3923470000    -1.2270090000
   24      H       0.3694900000    -1.4403910000    -1.0148290000
 ----------------------------------------------------------------

   10   -1180.7594781982      5.08e-07  Convergence criterion met
 Total energy in the final basis set =    -1180.7594781982
        RIMP2         total energy =     -1182.7636948193 a.u.

                    Orbital Energies (a.u.)
 --------------------------------------------------------------

 Alpha MOs
 -- Occupied --
-91.9857 -91.9409 -11.2799 -11.2646 -11.2633 -11.2554 -11.2508 -11.2409
-11.2383 -11.2316 -11.2288 -11.2196  -8.9854  -8.9456  -6.6663  -6.6658
 -6.6652  -6.6270  -6.6260  -6.6247  -1.1984  -1.1536  -1.0588  -1.0269
 -1.0020  -0.9634  -0.9128  -0.9004  -0.8134  -0.7609  -0.7432  -0.7032
 -0.6537  -0.6350  -0.6109  -0.5880  -0.5776  -0.5713  -0.5683  -0.5545
 -0.5434  -0.5301  -0.5146  -0.5058  -0.4906  -0.4809  -0.4637  -0.4488
 -0.3561  -0.3418  -0.3151  -0.2785

          Ground-State Mulliken Net Atomic Charges

     Atom                 Charge (a.u.)
  ----------------------------------------
      1 C                    -0.077962
      2 C                    -0.329704
      3 C                    -0.013018
      4 H                     0.176716
      5 C                     0.104728
      6 S                    -0.178589
      7 C                    -0.267059
      8 H                     0.114398
      9 H                     0.104085
     10 H                     0.104434
     11 C                    -0.113782
     12 C                    -0.230123
     13 C                     0.017913
     14 H                     0.188624
     15 C                    -0.244474
     16 S                     0.013796
     17 C                    -0.272660
     18 H                     0.102506
     19 H                     0.108728
     20 H                     0.107547
     21 H                     0.198670
     22 H                     0.113897
     23 H                     0.110669
     24 H                     0.160662
  ----------------------------------------
  Sum of atomic charges =     0.000000

                    Cartesian Multipole Moments
 -----------------------------------------------------------------
    Charge (ESU x 10^10)
                -0.0000
    Dipole Moment (Debye)
         X       2.7228      Y       0.6210      Z       1.5813
       Tot       3.2094
    Quadrupole Moments (Debye-Ang)
        XX     -91.9029     XY      -2.9672     YY     -73.6249
        XZ       0.3331     YZ       1.0143     ZZ     -85.7355

 Total job time:  652.57s(wall), 648.38s(cpu)
        *  Thank you very much for using Q-Chem.  Have a nice day.  *
