 Q-Chem 5.4, Q-Chem, Inc., Pleasanton, CA (2021)
 Q-Chem 5.4.0 for Intel X86 EM64T Linux

User input:
--------------------------------------------------------------
$molecule
0 1
C	0.671636	-3.866725	-0.386946
C	-0.530345	-3.703963	0.306544
C	-0.923770	-2.357056	0.533261
H	-1.128109	-4.561092	0.651857
C	0.000000	-1.440664	0.000000
S	1.337557	-2.286957	-0.772250
C	-2.184153	-1.978743	1.260680
H	-2.742769	-2.878678	1.583283
H	-2.863347	-1.376015	0.622180
H	-1.971094	-1.375728	2.168011
C	0.000000	0.000000	0.000000
C	0.223548	0.834165	1.099446
C	0.581748	2.170912	0.776721
H	0.128089	0.477934	2.136088
C	0.638880	2.384045	-0.612546
S	0.243934	0.910282	-1.486809
C	0.863301	3.221592	1.814609
H	0.753137	2.810458	2.836676
H	0.170663	4.084559	1.726239
H	1.894637	3.622593	1.726228
H	0.884575	3.300913	-1.161575
H	0.521098	-4.392713	-1.336254
H	1.418509	-4.392347	0.218374
H	-0.539900	-1.440937	-0.935365
$end

$rem
JOBTYPE		SP
EXCHANGE	HF
CORRELATION	pRIMP2
BASIS		cc-pvtz
METHOD		rimp2
AUX_BASIS	rimp2-cc-pvtz
SOLVENT_METHOD	PCM
PURECART	11111
SYMMETRY	false
MEM_TOTAL	110000
SCF_CONVERGENCE = 6
THRESH=10
$end

$solvent
dielectric 4.90
$end
--------------------------------------------------------------

             Standard Nuclear Orientation (Angstroms)
    I     Atom           X                Y                Z
 ----------------------------------------------------------------
    1      C       0.6716360000    -3.8667250000    -0.3869460000
    2      C      -0.5303450000    -3.7039630000     0.3065440000
    3      C      -0.9237700000    -2.3570560000     0.5332610000
    4      H      -1.1281090000    -4.5610920000     0.6518570000
    5      C       0.0000000000    -1.4406640000     0.0000000000
    6      S       1.3375570000    -2.2869570000    -0.7722500000
    7      C      -2.1841530000    -1.9787430000     1.2606800000
    8      H      -2.7427690000    -2.8786780000     1.5832830000
    9      H      -2.8633470000    -1.3760150000     0.6221800000
   10      H      -1.9710940000    -1.3757280000     2.1680110000
   11      C       0.0000000000     0.0000000000     0.0000000000
   12      C       0.2235480000     0.8341650000     1.0994460000
   13      C       0.5817480000     2.1709120000     0.7767210000
   14      H       0.1280890000     0.4779340000     2.1360880000
   15      C       0.6388800000     2.3840450000    -0.6125460000
   16      S       0.2439340000     0.9102820000    -1.4868090000
   17      C       0.8633010000     3.2215920000     1.8146090000
   18      H       0.7531370000     2.8104580000     2.8366760000
   19      H       0.1706630000     4.0845590000     1.7262390000
   20      H       1.8946370000     3.6225930000     1.7262280000
   21      H       0.8845750000     3.3009130000    -1.1615750000
   22      H       0.5210980000    -4.3927130000    -1.3362540000
   23      H       1.4185090000    -4.3923470000     0.2183740000
   24      H      -0.5399000000    -1.4409370000    -0.9353650000
 ----------------------------------------------------------------

   10   -1180.7554705927      5.19e-07  Convergence criterion met
 Total energy in the final basis set =    -1180.7554705927
        RIMP2         total energy =     -1182.7606804614 a.u.

                    Orbital Energies (a.u.)
 --------------------------------------------------------------

 Alpha MOs
 -- Occupied --
-91.9853 -91.9416 -11.2790 -11.2648 -11.2631 -11.2552 -11.2506 -11.2409
-11.2380 -11.2320 -11.2286 -11.2192  -8.9850  -8.9463  -6.6659  -6.6654
 -6.6648  -6.6277  -6.6267  -6.6254  -1.1986  -1.1534  -1.0584  -1.0279
 -1.0012  -0.9633  -0.9125  -0.9003  -0.8145  -0.7596  -0.7427  -0.7026
 -0.6537  -0.6355  -0.6105  -0.5886  -0.5796  -0.5700  -0.5671  -0.5542
 -0.5434  -0.5310  -0.5131  -0.5060  -0.4907  -0.4803  -0.4640  -0.4490
 -0.3564  -0.3408  -0.3172  -0.2751

          Ground-State Mulliken Net Atomic Charges

     Atom                 Charge (a.u.)
  ----------------------------------------
      1 C                    -0.076538
      2 C                    -0.326787
      3 C                    -0.028521
      4 H                     0.176262
      5 C                     0.099413
      6 S                    -0.172555
      7 C                    -0.269357
      8 H                     0.113412
      9 H                     0.104271
     10 H                     0.103491
     11 C                    -0.112089
     12 C                    -0.221287
     13 C                     0.016618
     14 H                     0.189626
     15 C                    -0.237118
     16 S                     0.010499
     17 C                    -0.273037
     18 H                     0.102117
     19 H                     0.107519
     20 H                     0.108545
     21 H                     0.198017
     22 H                     0.110217
     23 H                     0.113549
     24 H                     0.163733
  ----------------------------------------
  Sum of atomic charges =     0.000000

                    Cartesian Multipole Moments
 -----------------------------------------------------------------
    Charge (ESU x 10^10)
                -0.0000
    Dipole Moment (Debye)
         X      -1.9766      Y       0.5608      Z       1.9767
       Tot       2.8511
    Quadrupole Moments (Debye-Ang)
        XX     -91.2562     XY       6.5014     YY     -74.2478
        XZ       0.0118     YZ       0.3199     ZZ     -85.6290

 Total job time:  639.87s(wall), 637.75s(cpu)
        *  Thank you very much for using Q-Chem.  Have a nice day.  *
