 Q-Chem 5.4, Q-Chem, Inc., Pleasanton, CA (2021)
 Q-Chem 5.4.0 for Intel X86 EM64T Linux

User input:
--------------------------------------------------------------
$molecule
0 1
C	0.498788	-3.866725	-0.593324
C	-0.393517	-3.703963	0.469446
C	-0.685674	-2.357056	0.817050
H	-0.837128	-4.561092	0.998381
C	-0.000000	-1.440664	-0.000000
S	0.992768	-2.286957	-1.183149
C	-1.621254	-1.978743	1.931676
H	-2.035845	-2.878678	2.425882
H	-2.477868	-1.376015	1.563980
H	-1.110719	-1.375728	2.711417
C	0.000000	0.000000	0.000000
C	0.365003	0.782674	1.099446
C	0.949885	2.036912	0.776721
H	0.209135	0.448431	2.136088
C	1.043159	2.236886	-0.612546
S	0.398297	0.854094	-1.486809
C	1.409609	3.022738	1.814609
H	1.229726	2.636980	2.836676
H	0.877346	3.992870	1.726239
H	2.494910	3.238558	1.726228
H	1.444334	3.097160	-1.161575
H	0.032646	-4.392713	-1.433894
H	1.407651	-4.392347	-0.279954
H	-0.827254	-1.440937	-0.694299
$end

$rem
JOBTYPE		SP
EXCHANGE	HF
CORRELATION	pRIMP2
BASIS		cc-pvtz
METHOD		rimp2
AUX_BASIS	rimp2-cc-pvtz
SOLVENT_METHOD	PCM
PURECART	11111
SYMMETRY	false
MEM_TOTAL	110000
SCF_CONVERGENCE = 6
THRESH=10
$end

$solvent
dielectric 4.90
$end
--------------------------------------------------------------

             Standard Nuclear Orientation (Angstroms)
    I     Atom           X                Y                Z
 ----------------------------------------------------------------
    1      C       0.4987880000    -3.8667250000    -0.5933240000
    2      C      -0.3935170000    -3.7039630000     0.4694460000
    3      C      -0.6856740000    -2.3570560000     0.8170500000
    4      H      -0.8371280000    -4.5610920000     0.9983810000
    5      C       0.0000000000    -1.4406640000     0.0000000000
    6      S       0.9927680000    -2.2869570000    -1.1831490000
    7      C      -1.6212540000    -1.9787430000     1.9316760000
    8      H      -2.0358450000    -2.8786780000     2.4258820000
    9      H      -2.4778680000    -1.3760150000     1.5639800000
   10      H      -1.1107190000    -1.3757280000     2.7114170000
   11      C       0.0000000000     0.0000000000     0.0000000000
   12      C       0.3650030000     0.7826740000     1.0994460000
   13      C       0.9498850000     2.0369120000     0.7767210000
   14      H       0.2091350000     0.4484310000     2.1360880000
   15      C       1.0431590000     2.2368860000    -0.6125460000
   16      S       0.3982970000     0.8540940000    -1.4868090000
   17      C       1.4096090000     3.0227380000     1.8146090000
   18      H       1.2297260000     2.6369800000     2.8366760000
   19      H       0.8773460000     3.9928700000     1.7262390000
   20      H       2.4949100000     3.2385580000     1.7262280000
   21      H       1.4443340000     3.0971600000    -1.1615750000
   22      H       0.0326460000    -4.3927130000    -1.4338940000
   23      H       1.4076510000    -4.3923470000    -0.2799540000
   24      H      -0.8272540000    -1.4409370000    -0.6942990000
 ----------------------------------------------------------------

   10   -1180.7441543746      5.25e-07  Convergence criterion met
 Total energy in the final basis set =    -1180.7441543746
        RIMP2         total energy =     -1182.7525108145 a.u.

                    Orbital Energies (a.u.)
 --------------------------------------------------------------

 Alpha MOs
 -- Occupied --
-91.9841 -91.9427 -11.2790 -11.2639 -11.2635 -11.2550 -11.2506 -11.2408
-11.2375 -11.2327 -11.2285 -11.2194  -8.9840  -8.9474  -6.6649  -6.6643
 -6.6637  -6.6287  -6.6277  -6.6264  -1.1997  -1.1532  -1.0584  -1.0297
 -1.0001  -0.9637  -0.9128  -0.9002  -0.8157  -0.7594  -0.7396  -0.7032
 -0.6536  -0.6381  -0.6101  -0.5905  -0.5822  -0.5683  -0.5664  -0.5533
 -0.5443  -0.5328  -0.5158  -0.5057  -0.4886  -0.4772  -0.4667  -0.4459
 -0.3554  -0.3424  -0.3220  -0.2669

          Ground-State Mulliken Net Atomic Charges

     Atom                 Charge (a.u.)
  ----------------------------------------
      1 C                    -0.079363
      2 C                    -0.325099
      3 C                    -0.041074
      4 H                     0.176058
      5 C                     0.093922
      6 S                    -0.169419
      7 C                    -0.280407
      8 H                     0.115843
      9 H                     0.107007
     10 H                     0.103743
     11 C                    -0.097763
     12 C                    -0.219737
     13 C                     0.015862
     14 H                     0.192510
     15 C                    -0.232091
     16 S                     0.001092
     17 C                    -0.272778
     18 H                     0.101248
     19 H                     0.107925
     20 H                     0.108157
     21 H                     0.198215
     22 H                     0.109757
     23 H                     0.113218
     24 H                     0.173175
  ----------------------------------------
  Sum of atomic charges =     0.000000

                    Cartesian Multipole Moments
 -----------------------------------------------------------------
    Charge (ESU x 10^10)
                -0.0000
    Dipole Moment (Debye)
         X      -1.3524      Y       0.3556      Z       2.7126
       Tot       3.0518
    Quadrupole Moments (Debye-Ang)
        XX     -90.0841     XY       7.4497     YY     -75.4390
        XZ       0.2674     YZ      -0.9063     ZZ     -85.4706

 Total job time:  655.16s(wall), 651.59s(cpu)
        *  Thank you very much for using Q-Chem.  Have a nice day.  *
