 Q-Chem 5.4, Q-Chem, Inc., Pleasanton, CA (2021)
 Q-Chem 5.4.0 for Intel X86 EM64T Linux

User input:
--------------------------------------------------------------
$molecule
0 1
C	-0.763228	-3.866725	-0.135301
C	0.603311	-3.703963	0.106073
C	1.050423	-2.357056	0.185286
H	1.283188	-4.561092	0.225783
C	-0.000000	-1.440664	-0.000000
S	-1.521021	-2.286957	-0.268187
C	2.483507	-1.978743	0.438209
H	3.118798	-2.878678	0.550153
H	2.593381	-1.376015	1.363906
H	2.903516	-1.375728	-0.393798
C	0.000000	0.000000	0.000000
C	0.149995	0.850475	1.099446
C	0.390327	2.213354	0.776721
H	0.085947	0.487279	2.136088
C	0.428665	2.430655	-0.612546
S	0.163670	0.928078	-1.486809
C	0.579235	3.284574	1.814609
H	0.505323	2.865404	2.836676
H	-0.185980	4.083890	1.726239
H	1.571698	3.773937	1.726228
H	0.593515	3.365448	-1.161575
H	-1.258111	-4.392713	0.688674
H	-0.946272	-4.392347	-1.079084
H	-0.187654	-1.440937	1.063572
$end

$rem
JOBTYPE		SP
EXCHANGE	HF
CORRELATION	pRIMP2
BASIS		cc-pvtz
METHOD		rimp2
AUX_BASIS	rimp2-cc-pvtz
SOLVENT_METHOD	PCM
PURECART	11111
SYMMETRY	false
MEM_TOTAL	110000
SCF_CONVERGENCE = 6
THRESH=10
$end

$solvent
dielectric 4.90
$end
--------------------------------------------------------------

             Standard Nuclear Orientation (Angstroms)
    I     Atom           X                Y                Z
 ----------------------------------------------------------------
    1      C      -0.7632280000    -3.8667250000    -0.1353010000
    2      C       0.6033110000    -3.7039630000     0.1060730000
    3      C       1.0504230000    -2.3570560000     0.1852860000
    4      H       1.2831880000    -4.5610920000     0.2257830000
    5      C       0.0000000000    -1.4406640000     0.0000000000
    6      S      -1.5210210000    -2.2869570000    -0.2681870000
    7      C       2.4835070000    -1.9787430000     0.4382090000
    8      H       3.1187980000    -2.8786780000     0.5501530000
    9      H       2.5933810000    -1.3760150000     1.3639060000
   10      H       2.9035160000    -1.3757280000    -0.3937980000
   11      C       0.0000000000     0.0000000000     0.0000000000
   12      C       0.1499950000     0.8504750000     1.0994460000
   13      C       0.3903270000     2.2133540000     0.7767210000
   14      H       0.0859470000     0.4872790000     2.1360880000
   15      C       0.4286650000     2.4306550000    -0.6125460000
   16      S       0.1636700000     0.9280780000    -1.4868090000
   17      C       0.5792350000     3.2845740000     1.8146090000
   18      H       0.5053230000     2.8654040000     2.8366760000
   19      H      -0.1859800000     4.0838900000     1.7262390000
   20      H       1.5716980000     3.7739370000     1.7262280000
   21      H       0.5935150000     3.3654480000    -1.1615750000
   22      H      -1.2581110000    -4.3927130000     0.6886740000
   23      H      -0.9462720000    -4.3923470000    -1.0790840000
   24      H      -0.1876540000    -1.4409370000     1.0635720000
 ----------------------------------------------------------------

   10   -1180.7627713580      5.07e-07  Convergence criterion met
 Total energy in the final basis set =    -1180.7627713580
        RIMP2         total energy =     -1182.7678231916 a.u.

                    Orbital Energies (a.u.)
 --------------------------------------------------------------

 Alpha MOs
 -- Occupied --
-91.9803 -91.9406 -11.2807 -11.2657 -11.2630 -11.2555 -11.2510 -11.2446
-11.2406 -11.2314 -11.2296 -11.2195  -8.9803  -8.9453  -6.6612  -6.6606
 -6.6601  -6.6267  -6.6257  -6.6244  -1.1981  -1.1539  -1.0581  -1.0259
 -1.0056  -0.9607  -0.9118  -0.9012  -0.8151  -0.7608  -0.7359  -0.7033
 -0.6606  -0.6411  -0.6106  -0.5896  -0.5805  -0.5716  -0.5653  -0.5512
 -0.5417  -0.5294  -0.5155  -0.5059  -0.4913  -0.4799  -0.4603  -0.4478
 -0.3555  -0.3416  -0.3129  -0.2819

          Ground-State Mulliken Net Atomic Charges

     Atom                 Charge (a.u.)
  ----------------------------------------
      1 C                    -0.078572
      2 C                    -0.328733
      3 C                    -0.014515
      4 H                     0.176305
      5 C                     0.077452
      6 S                    -0.176548
      7 C                    -0.266555
      8 H                     0.114291
      9 H                     0.100396
     10 H                     0.108858
     11 C                    -0.076822
     12 C                    -0.246640
     13 C                     0.021721
     14 H                     0.182893
     15 C                    -0.236077
     16 S                     0.004797
     17 C                    -0.271736
     18 H                     0.101946
     19 H                     0.108751
     20 H                     0.108079
     21 H                     0.197161
     22 H                     0.111308
     23 H                     0.112054
     24 H                     0.170185
  ----------------------------------------
  Sum of atomic charges =     0.000000

                    Cartesian Multipole Moments
 -----------------------------------------------------------------
    Charge (ESU x 10^10)
                -0.0000
    Dipole Moment (Debye)
         X       2.6018      Y       0.6040      Z       2.7207
       Tot       3.8127
    Quadrupole Moments (Debye-Ang)
        XX     -91.3432     XY      -1.4813     YY     -73.9040
        XZ      -0.0932     YZ      -0.8897     ZZ     -86.1857

 Total job time:  658.09s(wall), 653.53s(cpu)
        *  Thank you very much for using Q-Chem.  Have a nice day.  *
