 Q-Chem 5.4, Q-Chem, Inc., Pleasanton, CA (2021)
 Q-Chem 5.4.0 for Intel X86 EM64T Linux

User input:
--------------------------------------------------------------
$molecule
0 1
C	0.593324	-3.866725	0.498788
C	-0.469446	-3.703963	-0.393517
C	-0.817050	-2.357056	-0.685674
H	-0.998381	-4.561092	-0.837128
C	0.000000	-1.440664	0.000000
S	1.183149	-2.286957	0.992768
C	-1.931676	-1.978743	-1.621254
H	-2.425882	-2.878678	-2.035845
H	-1.563980	-1.376015	-2.477868
H	-2.711417	-1.375728	-1.110719
C	0.000000	0.000000	0.000000
C	0.223548	0.834165	1.099446
C	0.581748	2.170912	0.776721
H	0.128089	0.477934	2.136088
C	0.638880	2.384045	-0.612546
S	0.243934	0.910282	-1.486809
C	0.863301	3.221592	1.814609
H	0.753137	2.810458	2.836676
H	0.170663	4.084559	1.726239
H	1.894637	3.622593	1.726228
H	0.884575	3.300913	-1.161575
H	1.433894	-4.392713	0.032646
H	0.279954	-4.392347	1.407651
H	-0.694299	-1.440391	0.827254
$end

$rem
JOBTYPE		SP
EXCHANGE	HF
CORRELATION	pRIMP2
BASIS		cc-pvtz
METHOD		rimp2
AUX_BASIS	rimp2-cc-pvtz
SOLVENT_METHOD	PCM
PURECART	11111
SYMMETRY	false
MEM_TOTAL	110000
SCF_CONVERGENCE = 6
THRESH=10
$end

$solvent
dielectric 4.90
$end
--------------------------------------------------------------

             Standard Nuclear Orientation (Angstroms)
    I     Atom           X                Y                Z
 ----------------------------------------------------------------
    1      C       0.5933240000    -3.8667250000     0.4987880000
    2      C      -0.4694460000    -3.7039630000    -0.3935170000
    3      C      -0.8170500000    -2.3570560000    -0.6856740000
    4      H      -0.9983810000    -4.5610920000    -0.8371280000
    5      C       0.0000000000    -1.4406640000     0.0000000000
    6      S       1.1831490000    -2.2869570000     0.9927680000
    7      C      -1.9316760000    -1.9787430000    -1.6212540000
    8      H      -2.4258820000    -2.8786780000    -2.0358450000
    9      H      -1.5639800000    -1.3760150000    -2.4778680000
   10      H      -2.7114170000    -1.3757280000    -1.1107190000
   11      C       0.0000000000     0.0000000000     0.0000000000
   12      C       0.2235480000     0.8341650000     1.0994460000
   13      C       0.5817480000     2.1709120000     0.7767210000
   14      H       0.1280890000     0.4779340000     2.1360880000
   15      C       0.6388800000     2.3840450000    -0.6125460000
   16      S       0.2439340000     0.9102820000    -1.4868090000
   17      C       0.8633010000     3.2215920000     1.8146090000
   18      H       0.7531370000     2.8104580000     2.8366760000
   19      H       0.1706630000     4.0845590000     1.7262390000
   20      H       1.8946370000     3.6225930000     1.7262280000
   21      H       0.8845750000     3.3009130000    -1.1615750000
   22      H       1.4338940000    -4.3927130000     0.0326460000
   23      H       0.2799540000    -4.3923470000     1.4076510000
   24      H      -0.6942990000    -1.4403910000     0.8272540000
 ----------------------------------------------------------------

   10   -1180.7583431114      5.13e-07  Convergence criterion met
 Total energy in the final basis set =    -1180.7583431114
        RIMP2         total energy =     -1182.7645551035 a.u.

                    Orbital Energies (a.u.)
 --------------------------------------------------------------

 Alpha MOs
 -- Occupied --
-91.9808 -91.9430 -11.2833 -11.2633 -11.2615 -11.2565 -11.2511 -11.2415
-11.2398 -11.2324 -11.2287 -11.2205  -8.9808  -8.9477  -6.6617  -6.6611
 -6.6606  -6.6290  -6.6280  -6.6267  -1.1994  -1.1533  -1.0588  -1.0266
 -1.0071  -0.9576  -0.9138  -0.9011  -0.8151  -0.7673  -0.7281  -0.6999
 -0.6612  -0.6428  -0.6107  -0.5877  -0.5810  -0.5736  -0.5673  -0.5521
 -0.5415  -0.5334  -0.5140  -0.5073  -0.4896  -0.4813  -0.4588  -0.4493
 -0.3559  -0.3428  -0.3191  -0.2716

          Ground-State Mulliken Net Atomic Charges

     Atom                 Charge (a.u.)
  ----------------------------------------
      1 C                    -0.078869
      2 C                    -0.322255
      3 C                    -0.042515
      4 H                     0.177057
      5 C                     0.109855
      6 S                    -0.173966
      7 C                    -0.275327
      8 H                     0.114699
      9 H                     0.107180
     10 H                     0.106156
     11 C                    -0.048326
     12 C                    -0.295362
     13 C                     0.039734
     14 H                     0.185162
     15 C                    -0.250812
     16 S                     0.006513
     17 C                    -0.272379
     18 H                     0.102536
     19 H                     0.107715
     20 H                     0.109009
     21 H                     0.195626
     22 H                     0.112904
     23 H                     0.110230
     24 H                     0.175434
  ----------------------------------------
  Sum of atomic charges =     0.000000

                    Cartesian Multipole Moments
 -----------------------------------------------------------------
    Charge (ESU x 10^10)
                -0.0000
    Dipole Moment (Debye)
         X      -1.9416      Y       0.2253      Z       0.6125
       Tot       2.0483
    Quadrupole Moments (Debye-Ang)
        XX     -91.2122     XY       6.3552     YY     -74.2011
        XZ       0.5467     YZ       2.3522     ZZ     -85.6462

 Total job time:  643.42s(wall), 637.97s(cpu)
        *  Thank you very much for using Q-Chem.  Have a nice day.  *
