 Q-Chem 5.4, Q-Chem, Inc., Pleasanton, CA (2021)
 Q-Chem 5.4.0 for Intel X86 EM64T Linux

User input:
--------------------------------------------------------------
$molecule
0 1
C	0.670924	-3.866725	0.388181
C	-0.530648	-3.703963	-0.306020
C	-0.923703	-2.357056	-0.533378
H	-1.128579	-4.561092	-0.651043
C	0.000000	-1.440664	0.000000
S	1.337567	-2.286957	0.772234
C	-2.183857	-1.978743	-1.261192
H	-2.742548	-2.878678	-1.583666
H	-1.970497	-1.376015	-2.168641
H	-2.863099	-1.375728	-0.623012
C	0.000000	0.000000	0.000000
C	0.747916	0.431772	1.099446
C	1.946425	1.123709	0.776721
H	0.428523	0.247378	2.136088
C	2.137531	1.234018	-0.612546
S	0.816154	0.471179	-1.486809
C	2.888455	1.667564	1.814609
H	2.519842	1.454746	2.836676
H	3.008896	2.767543	1.726239
H	3.901271	1.221850	1.726228
H	2.959587	1.708609	-1.161575
H	1.417779	-4.392713	-0.216843
H	0.520136	-4.392347	1.337652
H	0.540100	-1.440937	-0.935250
$end

$rem
JOBTYPE		SP
EXCHANGE	HF
CORRELATION	pRIMP2
BASIS		cc-pvtz
METHOD		rimp2
AUX_BASIS	rimp2-cc-pvtz
SOLVENT_METHOD	PCM
PURECART	11111
SYMMETRY	false
MEM_TOTAL	110000
SCF_CONVERGENCE = 6
THRESH=10
$end

$solvent
dielectric 4.90
$end
--------------------------------------------------------------

             Standard Nuclear Orientation (Angstroms)
    I     Atom           X                Y                Z
 ----------------------------------------------------------------
    1      C       0.6709240000    -3.8667250000     0.3881810000
    2      C      -0.5306480000    -3.7039630000    -0.3060200000
    3      C      -0.9237030000    -2.3570560000    -0.5333780000
    4      H      -1.1285790000    -4.5610920000    -0.6510430000
    5      C       0.0000000000    -1.4406640000     0.0000000000
    6      S       1.3375670000    -2.2869570000     0.7722340000
    7      C      -2.1838570000    -1.9787430000    -1.2611920000
    8      H      -2.7425480000    -2.8786780000    -1.5836660000
    9      H      -1.9704970000    -1.3760150000    -2.1686410000
   10      H      -2.8630990000    -1.3757280000    -0.6230120000
   11      C       0.0000000000     0.0000000000     0.0000000000
   12      C       0.7479160000     0.4317720000     1.0994460000
   13      C       1.9464250000     1.1237090000     0.7767210000
   14      H       0.4285230000     0.2473780000     2.1360880000
   15      C       2.1375310000     1.2340180000    -0.6125460000
   16      S       0.8161540000     0.4711790000    -1.4868090000
   17      C       2.8884550000     1.6675640000     1.8146090000
   18      H       2.5198420000     1.4547460000     2.8366760000
   19      H       3.0088960000     2.7675430000     1.7262390000
   20      H       3.9012710000     1.2218500000     1.7262280000
   21      H       2.9595870000     1.7086090000    -1.1615750000
   22      H       1.4177790000    -4.3927130000    -0.2168430000
   23      H       0.5201360000    -4.3923470000     1.3376520000
   24      H       0.5401000000    -1.4409370000    -0.9352500000
 ----------------------------------------------------------------

   10   -1180.6738797629      8.19e-07  Convergence criterion met
 Total energy in the final basis set =    -1180.6738797629
        RIMP2         total energy =     -1182.6963429910 a.u.

                    Orbital Energies (a.u.)
 --------------------------------------------------------------

 Alpha MOs
 -- Occupied --
-91.9776 -91.9357 -11.2883 -11.2628 -11.2540 -11.2529 -11.2527 -11.2431
-11.2350 -11.2303 -11.2288 -11.2092  -8.9796  -8.9407  -6.6603  -6.6593
 -6.6591  -6.6220  -6.6210  -6.6197  -1.2095  -1.1526  -1.0607  -1.0235
 -1.0055  -0.9609  -0.9132  -0.8996  -0.8060  -0.7703  -0.7387  -0.7039
 -0.6495  -0.6313  -0.6161  -0.5878  -0.5811  -0.5753  -0.5670  -0.5507
 -0.5414  -0.5346  -0.5127  -0.5052  -0.4868  -0.4666  -0.4586  -0.4373
 -0.3539  -0.3428  -0.3221  -0.2585

          Ground-State Mulliken Net Atomic Charges

     Atom                 Charge (a.u.)
  ----------------------------------------
      1 C                    -0.088130
      2 C                    -0.336877
      3 C                    -0.067047
      4 H                     0.171682
      5 C                     0.094820
      6 S                    -0.199974
      7 C                    -0.276727
      8 H                     0.113530
      9 H                     0.100397
     10 H                     0.106845
     11 C                    -0.152704
     12 C                    -0.132391
     13 C                    -0.014484
     14 H                     0.194204
     15 C                    -0.164724
     16 S                     0.006388
     17 C                    -0.268346
     18 H                     0.104103
     19 H                     0.110995
     20 H                     0.107149
     21 H                     0.202354
     22 H                     0.107655
     23 H                     0.106251
     24 H                     0.175032
  ----------------------------------------
  Sum of atomic charges =     0.000000

                    Cartesian Multipole Moments
 -----------------------------------------------------------------
    Charge (ESU x 10^10)
                -0.0000
    Dipole Moment (Debye)
         X       1.0250      Y       0.9971      Z      -0.0006
       Tot       1.4300
    Quadrupole Moments (Debye-Ang)
        XX     -82.0911     XY       7.9039     YY     -84.8182
        XZ       0.3897     YZ       3.5616     ZZ     -85.3074

 Total job time:  687.26s(wall), 685.06s(cpu)
        *  Thank you very much for using Q-Chem.  Have a nice day.  *
