 Q-Chem 5.4, Q-Chem, Inc., Pleasanton, CA (2021)
 Q-Chem 5.4.0 for Intel X86 EM64T Linux

User input:
--------------------------------------------------------------
$molecule
0 1
C	-0.728138	-3.866725	-0.265779
C	0.575726	-3.703963	0.209225
C	1.002290	-2.357056	0.364875
H	1.224486	-4.561092	0.445176
C	0.000000	-1.440664	0.000000
S	-1.451343	-2.286957	-0.528236
C	2.369683	-1.978743	0.862808
H	2.975883	-2.878678	1.083368
H	2.317142	-1.376015	1.793522
H	2.927787	-1.375728	0.116375
C	0.000000	0.000000	0.000000
C	0.295399	0.811508	1.099446
C	0.768742	2.111949	0.776721
H	0.169256	0.464952	2.136088
C	0.844232	2.319291	-0.612546
S	0.322342	0.885558	-1.486809
C	1.140796	3.134091	1.814609
H	0.995218	2.734123	2.836676
H	0.526006	4.054142	1.726239
H	2.203157	3.443680	1.726228
H	1.168902	3.211257	-1.161575
H	-1.358585	-4.392713	0.459743
H	-0.744515	-4.392347	-1.227009
H	-0.369490	-1.440937	1.014829
$end

$rem
JOBTYPE		SP
EXCHANGE	HF
CORRELATION	pRIMP2
BASIS		cc-pvtz
METHOD		rimp2
AUX_BASIS	rimp2-cc-pvtz
SOLVENT_METHOD	PCM
PURECART	11111
SYMMETRY	false
MEM_TOTAL	110000
SCF_CONVERGENCE = 6
THRESH=10
$end

$solvent
dielectric 4.90
$end
--------------------------------------------------------------

             Standard Nuclear Orientation (Angstroms)
    I     Atom           X                Y                Z
 ----------------------------------------------------------------
    1      C      -0.7281380000    -3.8667250000    -0.2657790000
    2      C       0.5757260000    -3.7039630000     0.2092250000
    3      C       1.0022900000    -2.3570560000     0.3648750000
    4      H       1.2244860000    -4.5610920000     0.4451760000
    5      C       0.0000000000    -1.4406640000     0.0000000000
    6      S      -1.4513430000    -2.2869570000    -0.5282360000
    7      C       2.3696830000    -1.9787430000     0.8628080000
    8      H       2.9758830000    -2.8786780000     1.0833680000
    9      H       2.3171420000    -1.3760150000     1.7935220000
   10      H       2.9277870000    -1.3757280000     0.1163750000
   11      C       0.0000000000     0.0000000000     0.0000000000
   12      C       0.2953990000     0.8115080000     1.0994460000
   13      C       0.7687420000     2.1119490000     0.7767210000
   14      H       0.1692560000     0.4649520000     2.1360880000
   15      C       0.8442320000     2.3192910000    -0.6125460000
   16      S       0.3223420000     0.8855580000    -1.4868090000
   17      C       1.1407960000     3.1340910000     1.8146090000
   18      H       0.9952180000     2.7341230000     2.8366760000
   19      H       0.5260060000     4.0541420000     1.7262390000
   20      H       2.2031570000     3.4436800000     1.7262280000
   21      H       1.1689020000     3.2112570000    -1.1615750000
   22      H      -1.3585850000    -4.3927130000     0.4597430000
   23      H      -0.7445150000    -4.3923470000    -1.2270090000
   24      H      -0.3694900000    -1.4409370000     1.0148290000
 ----------------------------------------------------------------

   10   -1180.7566831968      5.32e-07  Convergence criterion met
 Total energy in the final basis set =    -1180.7566831968
        RIMP2         total energy =     -1182.7638325131 a.u.

                    Orbital Energies (a.u.)
 --------------------------------------------------------------

 Alpha MOs
 -- Occupied --
-91.9800 -91.9399 -11.2785 -11.2673 -11.2630 -11.2553 -11.2515 -11.2457
-11.2403 -11.2313 -11.2299 -11.2194  -8.9800  -8.9446  -6.6609  -6.6604
 -6.6598  -6.6260  -6.6250  -6.6237  -1.1985  -1.1540  -1.0582  -1.0260
 -1.0051  -0.9614  -0.9116  -0.9014  -0.8146  -0.7604  -0.7357  -0.7046
 -0.6594  -0.6413  -0.6108  -0.5901  -0.5816  -0.5719  -0.5641  -0.5522
 -0.5416  -0.5294  -0.5175  -0.5064  -0.4891  -0.4768  -0.4606  -0.4470
 -0.3548  -0.3419  -0.3150  -0.2795

          Ground-State Mulliken Net Atomic Charges

     Atom                 Charge (a.u.)
  ----------------------------------------
      1 C                    -0.076195
      2 C                    -0.326045
      3 C                    -0.022879
      4 H                     0.176483
      5 C                     0.071387
      6 S                    -0.178626
      7 C                    -0.268279
      8 H                     0.115372
      9 H                     0.099050
     10 H                     0.111850
     11 C                    -0.060127
     12 C                    -0.267326
     13 C                     0.031886
     14 H                     0.187147
     15 C                    -0.235947
     16 S                     0.003819
     17 C                    -0.270866
     18 H                     0.101994
     19 H                     0.108700
     20 H                     0.108040
     21 H                     0.197704
     22 H                     0.110177
     23 H                     0.110814
     24 H                     0.171867
  ----------------------------------------
  Sum of atomic charges =     0.000000

                    Cartesian Multipole Moments
 -----------------------------------------------------------------
    Charge (ESU x 10^10)
                -0.0000
    Dipole Moment (Debye)
         X       2.7249      Y       0.6219      Z       3.1354
       Tot       4.2003
    Quadrupole Moments (Debye-Ang)
        XX     -90.3171     XY       0.5883     YY     -74.8549
        XZ       0.1594     YZ      -1.5223     ZZ     -86.2661

 Total job time:  664.47s(wall), 658.35s(cpu)
        *  Thank you very much for using Q-Chem.  Have a nice day.  *
