 Q-Chem 5.4, Q-Chem, Inc., Pleasanton, CA (2021)
 Q-Chem 5.4.0 for Intel X86 EM64T Linux

User input:
--------------------------------------------------------------
$molecule
0 1
C	-0.386946	-3.866725	-0.671636
C	0.306544	-3.703963	0.530345
C	0.533261	-2.357056	0.923770
H	0.651857	-4.561092	1.128109
C	0.000000	-1.440664	0.000000
S	-0.772250	-2.286957	-1.337557
C	1.260680	-1.978743	2.184153
H	1.583283	-2.878678	2.742769
H	0.622180	-1.376015	2.863347
H	2.168011	-1.375728	1.971094
C	0.000000	0.000000	0.000000
C	0.747916	0.431772	1.099446
C	1.946425	1.123709	0.776721
H	0.428523	0.247378	2.136088
C	2.137531	1.234018	-0.612546
S	0.816154	0.471179	-1.486809
C	2.888455	1.667564	1.814609
H	2.519842	1.454746	2.836676
H	3.008896	2.767543	1.726239
H	3.901271	1.221850	1.726228
H	2.959587	1.708609	-1.161575
H	-1.336254	-4.392713	-0.521098
H	0.218374	-4.392347	-1.418509
H	0.935365	-1.440391	-0.539900
$end

$rem
JOBTYPE		SP
EXCHANGE	HF
CORRELATION	pRIMP2
BASIS		cc-pvtz
METHOD		rimp2
AUX_BASIS	rimp2-cc-pvtz
SOLVENT_METHOD	PCM
PURECART	11111
SYMMETRY	false
MEM_TOTAL	110000
SCF_CONVERGENCE = 6
THRESH=10
$end

$solvent
dielectric 4.90
$end
--------------------------------------------------------------

             Standard Nuclear Orientation (Angstroms)
    I     Atom           X                Y                Z
 ----------------------------------------------------------------
    1      C      -0.3869460000    -3.8667250000    -0.6716360000
    2      C       0.3065440000    -3.7039630000     0.5303450000
    3      C       0.5332610000    -2.3570560000     0.9237700000
    4      H       0.6518570000    -4.5610920000     1.1281090000
    5      C       0.0000000000    -1.4406640000     0.0000000000
    6      S      -0.7722500000    -2.2869570000    -1.3375570000
    7      C       1.2606800000    -1.9787430000     2.1841530000
    8      H       1.5832830000    -2.8786780000     2.7427690000
    9      H       0.6221800000    -1.3760150000     2.8633470000
   10      H       2.1680110000    -1.3757280000     1.9710940000
   11      C       0.0000000000     0.0000000000     0.0000000000
   12      C       0.7479160000     0.4317720000     1.0994460000
   13      C       1.9464250000     1.1237090000     0.7767210000
   14      H       0.4285230000     0.2473780000     2.1360880000
   15      C       2.1375310000     1.2340180000    -0.6125460000
   16      S       0.8161540000     0.4711790000    -1.4868090000
   17      C       2.8884550000     1.6675640000     1.8146090000
   18      H       2.5198420000     1.4547460000     2.8366760000
   19      H       3.0088960000     2.7675430000     1.7262390000
   20      H       3.9012710000     1.2218500000     1.7262280000
   21      H       2.9595870000     1.7086090000    -1.1615750000
   22      H      -1.3362540000    -4.3927130000    -0.5210980000
   23      H       0.2183740000    -4.3923470000    -1.4185090000
   24      H       0.9353650000    -1.4403910000    -0.5399000000
 ----------------------------------------------------------------

   11   -1180.6713541582      4.66e-07  Convergence criterion met
 Total energy in the final basis set =    -1180.6713541582
        RIMP2         total energy =     -1182.6991081653 a.u.

                    Orbital Energies (a.u.)
 --------------------------------------------------------------

 Alpha MOs
 -- Occupied --
-91.9745 -91.9341 -11.2856 -11.2613 -11.2602 -11.2552 -11.2538 -11.2536
-11.2386 -11.2323 -11.2320 -11.2166  -8.9763  -8.9394  -6.6571  -6.6562
 -6.6559  -6.6208  -6.6197  -6.6186  -1.2129  -1.1537  -1.0623  -1.0345
 -0.9971  -0.9671  -0.9141  -0.9028  -0.8070  -0.7623  -0.7469  -0.7118
 -0.6492  -0.6432  -0.6138  -0.5981  -0.5829  -0.5737  -0.5659  -0.5524
 -0.5465  -0.5362  -0.5272  -0.5094  -0.4804  -0.4702  -0.4470  -0.4383
 -0.3547  -0.3407  -0.3258  -0.2614

          Ground-State Mulliken Net Atomic Charges

     Atom                 Charge (a.u.)
  ----------------------------------------
      1 C                    -0.072326
      2 C                    -0.332198
      3 C                    -0.049444
      4 H                     0.175772
      5 C                     0.099326
      6 S                    -0.204468
      7 C                    -0.280309
      8 H                     0.118231
      9 H                     0.099735
     10 H                     0.106314
     11 C                    -0.121373
     12 C                    -0.172952
     13 C                    -0.014947
     14 H                     0.194636
     15 C                    -0.187795
     16 S                     0.003072
     17 C                    -0.281777
     18 H                     0.105726
     19 H                     0.121947
     20 H                     0.109076
     21 H                     0.202303
     22 H                     0.111533
     23 H                     0.108107
     24 H                     0.161809
  ----------------------------------------
  Sum of atomic charges =     0.000000

                    Cartesian Multipole Moments
 -----------------------------------------------------------------
    Charge (ESU x 10^10)
                -0.0000
    Dipole Moment (Debye)
         X       4.3988      Y       0.2916      Z       3.6671
       Tot       5.7342
    Quadrupole Moments (Debye-Ang)
        XX     -82.7772     XY       2.5692     YY     -82.6487
        XZ       0.4611     YZ      -1.8081     ZZ     -85.2674

 Total job time:  786.66s(wall), 783.69s(cpu)
        *  Thank you very much for using Q-Chem.  Have a nice day.  *
