 Q-Chem 5.4, Q-Chem, Inc., Pleasanton, CA (2021)
 Q-Chem 5.4.0 for Intel X86 EM64T Linux

User input:
--------------------------------------------------------------
$molecule
0 1
C	-0.670924	-3.866725	-0.388181
C	0.530648	-3.703963	0.306020
C	0.923703	-2.357056	0.533378
H	1.128579	-4.561092	0.651043
C	-0.000000	-1.440664	-0.000000
S	-1.337567	-2.286957	-0.772234
C	2.183857	-1.978743	1.261192
H	2.742548	-2.878678	1.583666
H	1.970497	-1.376015	2.168641
H	2.863099	-1.375728	0.623012
C	0.000000	0.000000	0.000000
C	0.431829	0.747884	1.099446
C	1.123799	1.946373	0.776721
H	0.247423	0.428497	2.136088
C	1.234147	2.137457	-0.612546
S	0.471221	0.816130	-1.486809
C	1.667694	2.888380	1.814609
H	1.454874	2.519768	2.836676
H	1.222009	3.901210	1.726239
H	2.767675	3.008788	1.726228
H	1.708773	2.959493	-1.161575
H	-1.417779	-4.392713	0.216843
H	-0.520136	-4.392347	-1.337652
H	0.540100	-1.440391	-0.935250
$end

$rem
JOBTYPE		SP
EXCHANGE	HF
CORRELATION	pRIMP2
BASIS		cc-pvtz
METHOD		rimp2
AUX_BASIS	rimp2-cc-pvtz
SOLVENT_METHOD	PCM
PURECART	11111
SYMMETRY	false
MEM_TOTAL	110000
SCF_CONVERGENCE = 6
THRESH=10
$end

$solvent
dielectric 4.90
$end
--------------------------------------------------------------

   10   -1180.7404612777      5.44e-07  Convergence criterion met
 Total energy in the final basis set =    -1180.7404612777
        RIMP2         total energy =     -1182.7499186912 a.u.
 Total job time:  666.61s(wall), 662.72s(cpu)
        *  Thank you very much for using Q-Chem.  Have a nice day.  *
 Q-Chem 5.4, Q-Chem, Inc., Pleasanton, CA (2021)
 Q-Chem 5.4.0 for Intel X86 EM64T Linux

User input:
--------------------------------------------------------------
$molecule
0 1
C	-0.670924	-3.866725	-0.388181
C	0.530648	-3.703963	0.306020
C	0.923703	-2.357056	0.533378
H	1.128579	-4.561092	0.651043
C	-0.000000	-1.440664	-0.000000
S	-1.337567	-2.286957	-0.772234
C	2.183857	-1.978743	1.261192
H	2.742548	-2.878678	1.583666
H	1.970497	-1.376015	2.168641
H	2.863099	-1.375728	0.623012
C	0.000000	0.000000	0.000000
C	0.431829	0.747884	1.099446
C	1.123799	1.946373	0.776721
H	0.247423	0.428497	2.136088
C	1.234147	2.137457	-0.612546
S	0.471221	0.816130	-1.486809
C	1.667694	2.888380	1.814609
H	1.454874	2.519768	2.836676
H	1.222009	3.901210	1.726239
H	2.767675	3.008788	1.726228
H	1.708773	2.959493	-1.161575
H	-1.417779	-4.392713	0.216843
H	-0.520136	-4.392347	-1.337652
H	0.540100	-1.440391	-0.935250
$end

$rem
JOBTYPE		SP
EXCHANGE	HF
CORRELATION	pRIMP2
BASIS		cc-pvtz
METHOD		rimp2
AUX_BASIS	rimp2-cc-pvtz
SOLVENT_METHOD	PCM
PURECART	11111
SYMMETRY	false
MEM_TOTAL	110000
SCF_CONVERGENCE = 6
THRESH=10
$end

$solvent
dielectric 4.90
$end
--------------------------------------------------------------

             Standard Nuclear Orientation (Angstroms)
    I     Atom           X                Y                Z
 ----------------------------------------------------------------
    1      C      -0.6709240000    -3.8667250000    -0.3881810000
    2      C       0.5306480000    -3.7039630000     0.3060200000
    3      C       0.9237030000    -2.3570560000     0.5333780000
    4      H       1.1285790000    -4.5610920000     0.6510430000
    5      C       0.0000000000    -1.4406640000     0.0000000000
    6      S      -1.3375670000    -2.2869570000    -0.7722340000
    7      C       2.1838570000    -1.9787430000     1.2611920000
    8      H       2.7425480000    -2.8786780000     1.5836660000
    9      H       1.9704970000    -1.3760150000     2.1686410000
   10      H       2.8630990000    -1.3757280000     0.6230120000
   11      C       0.0000000000     0.0000000000     0.0000000000
   12      C       0.4318290000     0.7478840000     1.0994460000
   13      C       1.1237990000     1.9463730000     0.7767210000
   14      H       0.2474230000     0.4284970000     2.1360880000
   15      C       1.2341470000     2.1374570000    -0.6125460000
   16      S       0.4712210000     0.8161300000    -1.4868090000
   17      C       1.6676940000     2.8883800000     1.8146090000
   18      H       1.4548740000     2.5197680000     2.8366760000
   19      H       1.2220090000     3.9012100000     1.7262390000
   20      H       2.7676750000     3.0087880000     1.7262280000
   21      H       1.7087730000     2.9594930000    -1.1615750000
   22      H      -1.4177790000    -4.3927130000     0.2168430000
   23      H      -0.5201360000    -4.3923470000    -1.3376520000
   24      H       0.5401000000    -1.4403910000    -0.9352500000
 ----------------------------------------------------------------

   10   -1180.7404612777      5.44e-07  Convergence criterion met
 Total energy in the final basis set =    -1180.7404612777
        RIMP2         total energy =     -1182.7499186912 a.u.

                    Orbital Energies (a.u.)
 --------------------------------------------------------------

 Alpha MOs
 -- Occupied --
-91.9820 -91.9379 -11.2752 -11.2692 -11.2625 -11.2535 -11.2513 -11.2434
-11.2396 -11.2310 -11.2297 -11.2187  -8.9824  -8.9429  -6.6633  -6.6627
 -6.6621  -6.6243  -6.6232  -6.6220  -1.2003  -1.1537  -1.0593  -1.0268
 -1.0008  -0.9648  -0.9123  -0.9005  -0.8105  -0.7601  -0.7457  -0.7046
 -0.6519  -0.6352  -0.6117  -0.5887  -0.5775  -0.5725  -0.5681  -0.5545
 -0.5444  -0.5305  -0.5190  -0.5068  -0.4876  -0.4724  -0.4630  -0.4464
 -0.3541  -0.3440  -0.3190  -0.2719

          Ground-State Mulliken Net Atomic Charges

     Atom                 Charge (a.u.)
  ----------------------------------------
      1 C                    -0.074935
      2 C                    -0.323342
      3 C                    -0.045977
      4 H                     0.176985
      5 C                     0.095692
      6 S                    -0.187685
      7 C                    -0.276540
      8 H                     0.117092
      9 H                     0.103518
     10 H                     0.109438
     11 C                    -0.058058
     12 C                    -0.284319
     13 C                     0.047296
     14 H                     0.192689
     15 C                    -0.237045
     16 S                     0.007118
     17 C                    -0.270933
     18 H                     0.102381
     19 H                     0.109662
     20 H                     0.107285
     21 H                     0.199477
     22 H                     0.110797
     23 H                     0.108305
     24 H                     0.171099
  ----------------------------------------
  Sum of atomic charges =     0.000000

                    Cartesian Multipole Moments
 -----------------------------------------------------------------
    Charge (ESU x 10^10)
                -0.0000
    Dipole Moment (Debye)
         X       3.6044      Y       0.6541      Z       2.1689
       Tot       4.2572
    Quadrupole Moments (Debye-Ang)
        XX     -89.4084     XY       0.8684     YY     -76.6569
        XZ       0.5459     YZ       0.1810     ZZ     -85.6009

 Total job time:  665.20s(wall), 662.39s(cpu)
        *  Thank you very much for using Q-Chem.  Have a nice day.  *
