 Q-Chem 5.4, Q-Chem, Inc., Pleasanton, CA (2021)
 Q-Chem 5.4.0 for Intel X86 EM64T Linux

User input:
--------------------------------------------------------------
$molecule
0 1
C	0.135301	-3.866725	-0.763228
C	-0.106073	-3.703963	0.603311
C	-0.185286	-2.357056	1.050423
H	-0.225783	-4.561092	1.283188
C	-0.000000	-1.440664	-0.000000
S	0.268187	-2.286957	-1.521021
C	-0.438209	-1.978743	2.483507
H	-0.550153	-2.878678	3.118798
H	-1.363906	-1.376015	2.593381
H	0.393798	-1.375728	2.903516
C	0.000000	0.000000	0.000000
C	0.075300	0.860311	1.099446
C	0.195935	2.238951	0.776721
H	0.043151	0.492916	2.136088
C	0.215188	2.458766	-0.612546
S	0.082160	0.938811	-1.486809
C	0.290762	3.322559	1.814609
H	0.253664	2.898542	2.836676
H	-0.541206	4.052140	1.726239
H	1.236797	3.896558	1.726228
H	0.297938	3.404370	-1.161575
H	-0.688674	-4.392713	-1.258111
H	1.079084	-4.392347	-0.946272
H	-1.063572	-1.440937	-0.187654
$end

$rem
JOBTYPE		SP
EXCHANGE	HF
CORRELATION	pRIMP2
BASIS		cc-pvtz
METHOD		rimp2
AUX_BASIS	rimp2-cc-pvtz
SOLVENT_METHOD	PCM
PURECART	11111
SYMMETRY	false
MEM_TOTAL	110000
SCF_CONVERGENCE = 6
THRESH=10
$end

$solvent
dielectric 4.90
$end
--------------------------------------------------------------

             Standard Nuclear Orientation (Angstroms)
    I     Atom           X                Y                Z
 ----------------------------------------------------------------
    1      C       0.1353010000    -3.8667250000    -0.7632280000
    2      C      -0.1060730000    -3.7039630000     0.6033110000
    3      C      -0.1852860000    -2.3570560000     1.0504230000
    4      H      -0.2257830000    -4.5610920000     1.2831880000
    5      C       0.0000000000    -1.4406640000     0.0000000000
    6      S       0.2681870000    -2.2869570000    -1.5210210000
    7      C      -0.4382090000    -1.9787430000     2.4835070000
    8      H      -0.5501530000    -2.8786780000     3.1187980000
    9      H      -1.3639060000    -1.3760150000     2.5933810000
   10      H       0.3937980000    -1.3757280000     2.9035160000
   11      C       0.0000000000     0.0000000000     0.0000000000
   12      C       0.0753000000     0.8603110000     1.0994460000
   13      C       0.1959350000     2.2389510000     0.7767210000
   14      H       0.0431510000     0.4929160000     2.1360880000
   15      C       0.2151880000     2.4587660000    -0.6125460000
   16      S       0.0821600000     0.9388110000    -1.4868090000
   17      C       0.2907620000     3.3225590000     1.8146090000
   18      H       0.2536640000     2.8985420000     2.8366760000
   19      H      -0.5412060000     4.0521400000     1.7262390000
   20      H       1.2367970000     3.8965580000     1.7262280000
   21      H       0.2979380000     3.4043700000    -1.1615750000
   22      H      -0.6886740000    -4.3927130000    -1.2581110000
   23      H       1.0790840000    -4.3923470000    -0.9462720000
   24      H      -1.0635720000    -1.4409370000    -0.1876540000
 ----------------------------------------------------------------

   10   -1180.7563788096      5.13e-07  Convergence criterion met
 Total energy in the final basis set =    -1180.7563788096
        RIMP2         total energy =     -1182.7619582302 a.u.

                    Orbital Energies (a.u.)
 --------------------------------------------------------------

 Alpha MOs
 -- Occupied --
-91.9840 -91.9466 -11.2901 -11.2669 -11.2620 -11.2535 -11.2497 -11.2449
-11.2345 -11.2282 -11.2279 -11.2241  -8.9836  -8.9513  -6.6646  -6.6641
 -6.6634  -6.6327  -6.6317  -6.6304  -1.2028  -1.1523  -1.0607  -1.0325
 -1.0010  -0.9620  -0.9166  -0.8994  -0.8186  -0.7636  -0.7302  -0.7051
 -0.6569  -0.6480  -0.6103  -0.5946  -0.5845  -0.5685  -0.5628  -0.5508
 -0.5468  -0.5358  -0.5235  -0.5014  -0.4871  -0.4818  -0.4698  -0.4437
 -0.3611  -0.3438  -0.3243  -0.2642

          Ground-State Mulliken Net Atomic Charges

     Atom                 Charge (a.u.)
  ----------------------------------------
      1 C                    -0.072077
      2 C                    -0.316499
      3 C                    -0.041558
      4 H                     0.179334
      5 C                     0.135485
      6 S                    -0.178352
      7 C                    -0.304579
      8 H                     0.122817
      9 H                     0.111420
     10 H                     0.106572
     11 C                    -0.074169
     12 C                    -0.262556
     13 C                     0.031082
     14 H                     0.191187
     15 C                    -0.280581
     16 S                     0.001539
     17 C                    -0.273349
     18 H                     0.100403
     19 H                     0.108394
     20 H                     0.108680
     21 H                     0.197121
     22 H                     0.111371
     23 H                     0.114662
     24 H                     0.183651
  ----------------------------------------
  Sum of atomic charges =     0.000000

                    Cartesian Multipole Moments
 -----------------------------------------------------------------
    Charge (ESU x 10^10)
                -0.0000
    Dipole Moment (Debye)
         X      -1.1723      Y      -0.5353      Z       3.5601
       Tot       3.7862
    Quadrupole Moments (Debye-Ang)
        XX     -91.8110     XY       2.8955     YY     -72.6823
        XZ       0.2416     YZ      -2.0260     ZZ     -85.6153

 Total job time:  663.01s(wall), 659.64s(cpu)
        *  Thank you very much for using Q-Chem.  Have a nice day.  *
