 Q-Chem 5.4, Q-Chem, Inc., Pleasanton, CA (2021)
 Q-Chem 5.4.0 for Intel X86 EM64T Linux

User input:
--------------------------------------------------------------
$molecule
0 1
C	-0.386946	-3.866725	-0.671636
C	0.306544	-3.703963	0.530345
C	0.533261	-2.357056	0.923770
H	0.651857	-4.561092	1.128109
C	-0.000000	-1.440664	-0.000000
S	-0.772250	-2.286957	-1.337557
C	1.260680	-1.978743	2.184153
H	1.583283	-2.878678	2.742769
H	0.622180	-1.376015	2.863347
H	2.168011	-1.375728	1.971094
C	0.000000	0.000000	0.000000
C	0.075300	0.860311	1.099446
C	0.195935	2.238951	0.776721
H	0.043151	0.492916	2.136088
C	0.215188	2.458766	-0.612546
S	0.082160	0.938811	-1.486809
C	0.290762	3.322559	1.814609
H	0.253664	2.898542	2.836676
H	-0.541206	4.052140	1.726239
H	1.236797	3.896558	1.726228
H	0.297938	3.404370	-1.161575
H	-1.336254	-4.392713	-0.521098
H	0.218374	-4.392347	-1.418509
H	0.935365	-1.440391	-0.539900
$end

$rem
JOBTYPE		SP
EXCHANGE	HF
CORRELATION	pRIMP2
BASIS		cc-pvtz
METHOD		rimp2
AUX_BASIS	rimp2-cc-pvtz
SOLVENT_METHOD	PCM
PURECART	11111
SYMMETRY	false
MEM_TOTAL	110000
SCF_CONVERGENCE = 6
THRESH=10
$end

$solvent
dielectric 4.90
$end
--------------------------------------------------------------

             Standard Nuclear Orientation (Angstroms)
    I     Atom           X                Y                Z
 ----------------------------------------------------------------
    1      C      -0.3869460000    -3.8667250000    -0.6716360000
    2      C       0.3065440000    -3.7039630000     0.5303450000
    3      C       0.5332610000    -2.3570560000     0.9237700000
    4      H       0.6518570000    -4.5610920000     1.1281090000
    5      C       0.0000000000    -1.4406640000     0.0000000000
    6      S      -0.7722500000    -2.2869570000    -1.3375570000
    7      C       1.2606800000    -1.9787430000     2.1841530000
    8      H       1.5832830000    -2.8786780000     2.7427690000
    9      H       0.6221800000    -1.3760150000     2.8633470000
   10      H       2.1680110000    -1.3757280000     1.9710940000
   11      C       0.0000000000     0.0000000000     0.0000000000
   12      C       0.0753000000     0.8603110000     1.0994460000
   13      C       0.1959350000     2.2389510000     0.7767210000
   14      H       0.0431510000     0.4929160000     2.1360880000
   15      C       0.2151880000     2.4587660000    -0.6125460000
   16      S       0.0821600000     0.9388110000    -1.4868090000
   17      C       0.2907620000     3.3225590000     1.8146090000
   18      H       0.2536640000     2.8985420000     2.8366760000
   19      H      -0.5412060000     4.0521400000     1.7262390000
   20      H       1.2367970000     3.8965580000     1.7262280000
   21      H       0.2979380000     3.4043700000    -1.1615750000
   22      H      -1.3362540000    -4.3927130000    -0.5210980000
   23      H       0.2183740000    -4.3923470000    -1.4185090000
   24      H       0.9353650000    -1.4403910000    -0.5399000000
 ----------------------------------------------------------------

   10   -1180.7592268601      5.13e-07  Convergence criterion met
 Total energy in the final basis set =    -1180.7592268601
        RIMP2         total energy =     -1182.7638358583 a.u.

                    Orbital Energies (a.u.)
 --------------------------------------------------------------

 Alpha MOs
 -- Occupied --
-91.9834 -91.9449 -11.2879 -11.2658 -11.2606 -11.2568 -11.2501 -11.2439
-11.2334 -11.2317 -11.2283 -11.2232  -8.9832  -8.9497  -6.6642  -6.6637
 -6.6630  -6.6311  -6.6301  -6.6288  -1.2018  -1.1528  -1.0603  -1.0309
 -1.0010  -0.9627  -0.9152  -0.8998  -0.8169  -0.7627  -0.7360  -0.7036
 -0.6555  -0.6441  -0.6105  -0.5929  -0.5820  -0.5691  -0.5649  -0.5530
 -0.5462  -0.5343  -0.5205  -0.5038  -0.4873  -0.4821  -0.4664  -0.4470
 -0.3582  -0.3434  -0.3242  -0.2676

          Ground-State Mulliken Net Atomic Charges

     Atom                 Charge (a.u.)
  ----------------------------------------
      1 C                    -0.074481
      2 C                    -0.319442
      3 C                    -0.032643
      4 H                     0.178430
      5 C                     0.116518
      6 S                    -0.175330
      7 C                    -0.291746
      8 H                     0.118910
      9 H                     0.104217
     10 H                     0.112200
     11 C                    -0.073100
     12 C                    -0.270464
     13 C                     0.034713
     14 H                     0.191443
     15 C                    -0.269831
     16 S                     0.004240
     17 C                    -0.272975
     18 H                     0.101153
     19 H                     0.109009
     20 H                     0.108490
     21 H                     0.196717
     22 H                     0.114881
     23 H                     0.111013
     24 H                     0.178078
  ----------------------------------------
  Sum of atomic charges =     0.000000

                    Cartesian Multipole Moments
 -----------------------------------------------------------------
    Charge (ESU x 10^10)
                -0.0000
    Dipole Moment (Debye)
         X       2.0756      Y      -0.2269      Z       3.0756
       Tot       3.7174
    Quadrupole Moments (Debye-Ang)
        XX     -91.8946     XY      -2.0730     YY     -72.8185
        XZ       0.1186     YZ      -1.1749     ZZ     -85.6937

 Total job time:  660.73s(wall), 654.52s(cpu)
        *  Thank you very much for using Q-Chem.  Have a nice day.  *
