 Q-Chem 5.4, Q-Chem, Inc., Pleasanton, CA (2021)
 Q-Chem 5.4.0 for Intel X86 EM64T Linux

User input:
--------------------------------------------------------------
$molecule
0 1
C	0.388181	-3.866725	-0.670924
C	-0.306020	-3.703963	0.530648
C	-0.533378	-2.357056	0.923703
H	-0.651043	-4.561092	1.128579
C	0.000000	-1.440664	0.000000
S	0.772234	-2.286957	-1.337567
C	-1.261192	-1.978743	2.183857
H	-1.583666	-2.878678	2.742548
H	-2.168641	-1.376015	1.970497
H	-0.623012	-1.375728	2.863099
C	0.000000	0.000000	0.000000
C	0.747916	0.431772	1.099446
C	1.946425	1.123709	0.776721
H	0.428523	0.247378	2.136088
C	2.137531	1.234018	-0.612546
S	0.816154	0.471179	-1.486809
C	2.888455	1.667564	1.814609
H	2.519842	1.454746	2.836676
H	3.008896	2.767543	1.726239
H	3.901271	1.221850	1.726228
H	2.959587	1.708609	-1.161575
H	-0.216843	-4.392713	-1.417779
H	1.337652	-4.392347	-0.520136
H	-0.935250	-1.440937	-0.540100
$end

$rem
JOBTYPE		SP
EXCHANGE	HF
CORRELATION	pRIMP2
BASIS		cc-pvtz
METHOD		rimp2
AUX_BASIS	rimp2-cc-pvtz
SOLVENT_METHOD	PCM
PURECART	11111
SYMMETRY	false
MEM_TOTAL	110000
SCF_CONVERGENCE = 6
THRESH=10
$end

$solvent
dielectric 4.90
$end
--------------------------------------------------------------

             Standard Nuclear Orientation (Angstroms)
    I     Atom           X                Y                Z
 ----------------------------------------------------------------
    1      C       0.3881810000    -3.8667250000    -0.6709240000
    2      C      -0.3060200000    -3.7039630000     0.5306480000
    3      C      -0.5333780000    -2.3570560000     0.9237030000
    4      H      -0.6510430000    -4.5610920000     1.1285790000
    5      C       0.0000000000    -1.4406640000     0.0000000000
    6      S       0.7722340000    -2.2869570000    -1.3375670000
    7      C      -1.2611920000    -1.9787430000     2.1838570000
    8      H      -1.5836660000    -2.8786780000     2.7425480000
    9      H      -2.1686410000    -1.3760150000     1.9704970000
   10      H      -0.6230120000    -1.3757280000     2.8630990000
   11      C       0.0000000000     0.0000000000     0.0000000000
   12      C       0.7479160000     0.4317720000     1.0994460000
   13      C       1.9464250000     1.1237090000     0.7767210000
   14      H       0.4285230000     0.2473780000     2.1360880000
   15      C       2.1375310000     1.2340180000    -0.6125460000
   16      S       0.8161540000     0.4711790000    -1.4868090000
   17      C       2.8884550000     1.6675640000     1.8146090000
   18      H       2.5198420000     1.4547460000     2.8366760000
   19      H       3.0088960000     2.7675430000     1.7262390000
   20      H       3.9012710000     1.2218500000     1.7262280000
   21      H       2.9595870000     1.7086090000    -1.1615750000
   22      H      -0.2168430000    -4.3927130000    -1.4177790000
   23      H       1.3376520000    -4.3923470000    -0.5201360000
   24      H      -0.9352500000    -1.4409370000    -0.5401000000
 ----------------------------------------------------------------

   11   -1180.6656063707      5.35e-07  Convergence criterion met
 Total energy in the final basis set =    -1180.6656063707
        RIMP2         total energy =     -1182.6914869779 a.u.

                    Orbital Energies (a.u.)
 --------------------------------------------------------------

 Alpha MOs
 -- Occupied --
-91.9812 -91.9353 -11.2869 -11.2583 -11.2576 -11.2528 -11.2479 -11.2448
-11.2310 -11.2309 -11.2304 -11.2102  -8.9823  -8.9401  -6.6630  -6.6621
 -6.6619  -6.6213  -6.6201  -6.6188  -1.2042  -1.1528  -1.0572  -1.0304
 -0.9973  -0.9670  -0.9085  -0.9015  -0.8133  -0.7569  -0.7413  -0.7066
 -0.6488  -0.6330  -0.6133  -0.5937  -0.5837  -0.5686  -0.5663  -0.5507
 -0.5425  -0.5347  -0.5154  -0.5057  -0.4826  -0.4812  -0.4475  -0.4316
 -0.3522  -0.3376  -0.3241  -0.2524

          Ground-State Mulliken Net Atomic Charges

     Atom                 Charge (a.u.)
  ----------------------------------------
      1 C                    -0.087889
      2 C                    -0.338679
      3 C                    -0.058575
      4 H                     0.171028
      5 C                     0.076031
      6 S                    -0.183311
      7 C                    -0.285071
      8 H                     0.115822
      9 H                     0.108210
     10 H                     0.097849
     11 C                    -0.170575
     12 C                    -0.107647
     13 C                    -0.029485
     14 H                     0.203237
     15 C                    -0.168780
     16 S                     0.022816
     17 C                    -0.269527
     18 H                     0.101393
     19 H                     0.107883
     20 H                     0.106356
     21 H                     0.202866
     22 H                     0.103360
     23 H                     0.105275
     24 H                     0.177415
  ----------------------------------------
  Sum of atomic charges =     0.000000

                    Cartesian Multipole Moments
 -----------------------------------------------------------------
    Charge (ESU x 10^10)
                -0.0000
    Dipole Moment (Debye)
         X       0.9995      Y       1.0831      Z       3.1027
       Tot       3.4349
    Quadrupole Moments (Debye-Ang)
        XX     -82.4247     XY       8.5109     YY     -85.1453
        XZ       0.3272     YZ      -1.9003     ZZ     -84.6279

 Total job time:  779.71s(wall), 757.88s(cpu)
        *  Thank you very much for using Q-Chem.  Have a nice day.  *
