 Q-Chem 5.4, Q-Chem, Inc., Pleasanton, CA (2021)
 Q-Chem 5.4.0 for Intel X86 EM64T Linux

User input:
--------------------------------------------------------------
$molecule
0 1
C	0.497696	-3.866725	0.594240
C	-0.393981	-3.703963	-0.469057
C	-0.685571	-2.357056	-0.817136
H	-0.837848	-4.561092	-0.997777
C	0.000000	-1.440664	0.000000
S	0.992782	-2.286957	1.183137
C	-1.620802	-1.978743	-1.932056
H	-2.035506	-2.878678	-2.426166
H	-1.109943	-1.376015	-2.711806
H	-2.477350	-1.375728	-1.564678
H	0.883271	-4.783437	1.054110
C	0.000000	0.000000	0.000000
C	0.431829	0.747884	1.099446
C	1.123799	1.946373	0.776721
H	0.247423	0.428497	2.136088
C	1.234147	2.137457	-0.612546
S	0.471221	0.816130	-1.486809
C	1.667694	2.888380	1.814609
H	1.454874	2.519768	2.836676
H	1.222009	3.901210	1.726239
H	2.767675	3.008788	1.726228
H	1.708773	2.959493	-1.161575
$end

$rem
JOBTYPE		SP
EXCHANGE	HF
CORRELATION	pRIMP2
BASIS		cc-pvtz
METHOD		rimp2
AUX_BASIS	rimp2-cc-pvtz
SOLVENT_METHOD	PCM
PURECART	11111
SYMMETRY	false
MEM_TOTAL	110000
SCF_CONVERGENCE = 6
THRESH=10
$end

$solvent
dielectric 4.90
$end
--------------------------------------------------------------

             Standard Nuclear Orientation (Angstroms)
    I     Atom           X                Y                Z
 ----------------------------------------------------------------
    1      C       0.4976960000    -3.8667250000     0.5942400000
    2      C      -0.3939810000    -3.7039630000    -0.4690570000
    3      C      -0.6855710000    -2.3570560000    -0.8171360000
    4      H      -0.8378480000    -4.5610920000    -0.9977770000
    5      C       0.0000000000    -1.4406640000     0.0000000000
    6      S       0.9927820000    -2.2869570000     1.1831370000
    7      C      -1.6208020000    -1.9787430000    -1.9320560000
    8      H      -2.0355060000    -2.8786780000    -2.4261660000
    9      H      -1.1099430000    -1.3760150000    -2.7118060000
   10      H      -2.4773500000    -1.3757280000    -1.5646780000
   11      H       0.8832710000    -4.7834370000     1.0541100000
   12      C       0.0000000000     0.0000000000     0.0000000000
   13      C       0.4318290000     0.7478840000     1.0994460000
   14      C       1.1237990000     1.9463730000     0.7767210000
   15      H       0.2474230000     0.4284970000     2.1360880000
   16      C       1.2341470000     2.1374570000    -0.6125460000
   17      S       0.4712210000     0.8161300000    -1.4868090000
   18      C       1.6676940000     2.8883800000     1.8146090000
   19      H       1.4548740000     2.5197680000     2.8366760000
   20      H       1.2220090000     3.9012100000     1.7262390000
   21      H       2.7676750000     3.0087880000     1.7262280000
   22      H       1.7087730000     2.9594930000    -1.1615750000
 ----------------------------------------------------------------

   10   -1179.6712401854      5.17e-07  Convergence criterion met
 Total energy in the final basis set =    -1179.6712401854
        RIMP2         total energy =     -1181.6543300306 a.u.

                    Orbital Energies (a.u.)
 --------------------------------------------------------------

 Alpha MOs
 -- Occupied --
-91.9850 -91.9837 -11.2760 -11.2744 -11.2704 -11.2687 -11.2528 -11.2482
-11.2459 -11.2411 -11.2296 -11.2292  -8.9849  -8.9834  -6.6658  -6.6652
 -6.6646  -6.6643  -6.6637  -6.6631  -1.1820  -1.1491  -1.0422  -1.0230
 -0.9996  -0.9512  -0.9148  -0.8928  -0.7994  -0.7619  -0.7244  -0.6926
 -0.6613  -0.6170  -0.5835  -0.5794  -0.5760  -0.5699  -0.5516  -0.5343
 -0.5262  -0.5186  -0.5087  -0.4951  -0.4828  -0.4679  -0.4563  -0.3539
 -0.3431  -0.3410  -0.2756

          Ground-State Mulliken Net Atomic Charges

     Atom                 Charge (a.u.)
  ----------------------------------------
      1 C                    -0.221789
      2 C                    -0.245492
      3 C                     0.026644
      4 H                     0.183358
      5 C                    -0.008724
      6 S                     0.019204
      7 C                    -0.299048
      8 H                     0.110593
      9 H                     0.110780
     10 H                     0.113054
     11 H                     0.204252
     12 C                     0.020019
     13 C                    -0.310093
     14 C                     0.059265
     15 H                     0.190141
     16 C                    -0.241126
     17 S                     0.038395
     18 C                    -0.268026
     19 H                     0.103330
     20 H                     0.108219
     21 H                     0.108856
     22 H                     0.198188
  ----------------------------------------
  Sum of atomic charges =     0.000000

                    Cartesian Multipole Moments
 -----------------------------------------------------------------
    Charge (ESU x 10^10)
                -0.0000
    Dipole Moment (Debye)
         X       0.1607      Y       0.4831      Z       0.3304
       Tot       0.6069
    Quadrupole Moments (Debye-Ang)
        XX     -87.1513     XY       6.4082     YY     -71.9841
        XZ       3.7137     YZ       2.5659     ZZ     -82.6884

 Total job time:  551.71s(wall), 547.40s(cpu)
        *  Thank you very much for using Q-Chem.  Have a nice day.  *
