 Q-Chem 5.4, Q-Chem, Inc., Pleasanton, CA (2021)
 Q-Chem 5.4.0 for Intel X86 EM64T Linux

User input:
--------------------------------------------------------------
$molecule
0 1
C	-0.763228	-3.866725	-0.135301
C	0.603311	-3.703963	0.106073
C	1.050423	-2.357056	0.185286
H	1.283188	-4.561092	0.225783
C	-0.000000	-1.440664	-0.000000
S	-1.521021	-2.286957	-0.268187
C	2.483507	-1.978743	0.438209
H	3.118798	-2.878678	0.550153
H	2.593381	-1.376015	1.363906
H	2.903516	-1.375728	-0.393798
H	-1.354194	-4.783437	-0.239740
C	0.000000	0.000000	0.000000
C	0.149995	0.850475	1.099446
C	0.390327	2.213354	0.776721
H	0.085947	0.487279	2.136088
C	0.428665	2.430655	-0.612546
S	0.163670	0.928078	-1.486809
C	0.579235	3.284574	1.814609
H	0.505323	2.865404	2.836676
H	-0.185980	4.083890	1.726239
H	1.571698	3.773937	1.726228
H	0.593515	3.365448	-1.161575
$end

$rem
JOBTYPE		SP
EXCHANGE	HF
CORRELATION	pRIMP2
BASIS		cc-pvtz
METHOD		rimp2
AUX_BASIS	rimp2-cc-pvtz
SOLVENT_METHOD	PCM
PURECART	11111
SYMMETRY	false
MEM_TOTAL	110000
SCF_CONVERGENCE = 6
THRESH=10
$end

$solvent
dielectric 4.90
$end
--------------------------------------------------------------

             Standard Nuclear Orientation (Angstroms)
    I     Atom           X                Y                Z
 ----------------------------------------------------------------
    1      C      -0.7632280000    -3.8667250000    -0.1353010000
    2      C       0.6033110000    -3.7039630000     0.1060730000
    3      C       1.0504230000    -2.3570560000     0.1852860000
    4      H       1.2831880000    -4.5610920000     0.2257830000
    5      C       0.0000000000    -1.4406640000     0.0000000000
    6      S      -1.5210210000    -2.2869570000    -0.2681870000
    7      C       2.4835070000    -1.9787430000     0.4382090000
    8      H       3.1187980000    -2.8786780000     0.5501530000
    9      H       2.5933810000    -1.3760150000     1.3639060000
   10      H       2.9035160000    -1.3757280000    -0.3937980000
   11      H      -1.3541940000    -4.7834370000    -0.2397400000
   12      C       0.0000000000     0.0000000000     0.0000000000
   13      C       0.1499950000     0.8504750000     1.0994460000
   14      C       0.3903270000     2.2133540000     0.7767210000
   15      H       0.0859470000     0.4872790000     2.1360880000
   16      C       0.4286650000     2.4306550000    -0.6125460000
   17      S       0.1636700000     0.9280780000    -1.4868090000
   18      C       0.5792350000     3.2845740000     1.8146090000
   19      H       0.5053230000     2.8654040000     2.8366760000
   20      H      -0.1859800000     4.0838900000     1.7262390000
   21      H       1.5716980000     3.7739370000     1.7262280000
   22      H       0.5935150000     3.3654480000    -1.1615750000
 ----------------------------------------------------------------

   10   -1179.6837977594      5.16e-07  Convergence criterion met
 Total energy in the final basis set =    -1179.6837977594
        RIMP2         total energy =     -1181.6624140876 a.u.

                    Orbital Energies (a.u.)
 --------------------------------------------------------------

 Alpha MOs
 -- Occupied --
-91.9854 -91.9837 -11.2778 -11.2728 -11.2722 -11.2655 -11.2543 -11.2510
-11.2429 -11.2418 -11.2292 -11.2291  -8.9849  -8.9834  -6.6657  -6.6652
 -6.6646  -6.6643  -6.6637  -6.6631  -1.1784  -1.1495  -1.0401  -1.0229
 -0.9969  -0.9544  -0.9132  -0.8922  -0.8005  -0.7531  -0.7313  -0.6956
 -0.6621  -0.6161  -0.5823  -0.5795  -0.5711  -0.5685  -0.5519  -0.5312
 -0.5299  -0.5204  -0.5084  -0.4916  -0.4867  -0.4643  -0.4622  -0.3454
 -0.3388  -0.3210  -0.3039

          Ground-State Mulliken Net Atomic Charges

     Atom                 Charge (a.u.)
  ----------------------------------------
      1 C                    -0.215407
      2 C                    -0.247858
      3 C                     0.055065
      4 H                     0.184253
      5 C                    -0.038748
      6 S                     0.027299
      7 C                    -0.280314
      8 H                     0.108867
      9 H                     0.109553
     10 H                     0.111687
     11 H                     0.204177
     12 C                    -0.030224
     13 C                    -0.231267
     14 C                     0.021073
     15 H                     0.187166
     16 C                    -0.238450
     17 S                     0.027569
     18 C                    -0.271230
     19 H                     0.102600
     20 H                     0.108397
     21 H                     0.107814
     22 H                     0.197977
  ----------------------------------------
  Sum of atomic charges =     0.000000

                    Cartesian Multipole Moments
 -----------------------------------------------------------------
    Charge (ESU x 10^10)
                -0.0000
    Dipole Moment (Debye)
         X       1.8433      Y       0.2756      Z       1.7222
       Tot       2.5377
    Quadrupole Moments (Debye-Ang)
        XX     -86.0582     XY      -0.2647     YY     -69.0932
        XZ       1.2920     YZ       0.6271     ZZ     -86.5259

 Total job time:  566.93s(wall), 563.87s(cpu)
        *  Thank you very much for using Q-Chem.  Have a nice day.  *
