 Q-Chem 5.4, Q-Chem, Inc., Pleasanton, CA (2021)
 Q-Chem 5.4.0 for Intel X86 EM64T Linux

User input:
--------------------------------------------------------------
$molecule
0 1
C	-0.388181	-3.866725	0.670924
C	0.306020	-3.703963	-0.530648
C	0.533378	-2.357056	-0.923703
H	0.651043	-4.561092	-1.128579
C	-0.000000	-1.440664	-0.000000
S	-0.772234	-2.286957	1.337567
C	1.261192	-1.978743	-2.183857
H	1.583666	-2.878678	-2.742548
H	2.168641	-1.376015	-1.970497
H	0.623012	-1.375728	-2.863099
H	-0.688443	-4.783437	1.190530
C	0.000000	0.000000	0.000000
C	0.149995	0.850475	1.099446
C	0.390327	2.213354	0.776721
H	0.085947	0.487279	2.136088
C	0.428665	2.430655	-0.612546
S	0.163670	0.928078	-1.486809
C	0.579235	3.284574	1.814609
H	0.505323	2.865404	2.836676
H	-0.185980	4.083890	1.726239
H	1.571698	3.773937	1.726228
H	0.593515	3.365448	-1.161575
$end

$rem
JOBTYPE		SP
EXCHANGE	HF
CORRELATION	pRIMP2
BASIS		cc-pvtz
METHOD		rimp2
AUX_BASIS	rimp2-cc-pvtz
SOLVENT_METHOD	PCM
PURECART	11111
SYMMETRY	false
MEM_TOTAL	110000
SCF_CONVERGENCE = 6
THRESH=10
$end

$solvent
dielectric 4.90
$end
--------------------------------------------------------------

             Standard Nuclear Orientation (Angstroms)
    I     Atom           X                Y                Z
 ----------------------------------------------------------------
    1      C      -0.3881810000    -3.8667250000     0.6709240000
    2      C       0.3060200000    -3.7039630000    -0.5306480000
    3      C       0.5333780000    -2.3570560000    -0.9237030000
    4      H       0.6510430000    -4.5610920000    -1.1285790000
    5      C       0.0000000000    -1.4406640000     0.0000000000
    6      S      -0.7722340000    -2.2869570000     1.3375670000
    7      C       1.2611920000    -1.9787430000    -2.1838570000
    8      H       1.5836660000    -2.8786780000    -2.7425480000
    9      H       2.1686410000    -1.3760150000    -1.9704970000
   10      H       0.6230120000    -1.3757280000    -2.8630990000
   11      H      -0.6884430000    -4.7834370000     1.1905300000
   12      C       0.0000000000     0.0000000000     0.0000000000
   13      C       0.1499950000     0.8504750000     1.0994460000
   14      C       0.3903270000     2.2133540000     0.7767210000
   15      H       0.0859470000     0.4872790000     2.1360880000
   16      C       0.4286650000     2.4306550000    -0.6125460000
   17      S       0.1636700000     0.9280780000    -1.4868090000
   18      C       0.5792350000     3.2845740000     1.8146090000
   19      H       0.5053230000     2.8654040000     2.8366760000
   20      H      -0.1859800000     4.0838900000     1.7262390000
   21      H       1.5716980000     3.7739370000     1.7262280000
   22      H       0.5935150000     3.3654480000    -1.1615750000
 ----------------------------------------------------------------

   10   -1179.6835405980      5.12e-07  Convergence criterion met
 Total energy in the final basis set =    -1179.6835405980
        RIMP2         total energy =     -1181.6641473354 a.u.

                    Orbital Energies (a.u.)
 --------------------------------------------------------------

 Alpha MOs
 -- Occupied --
-91.9848 -91.9847 -11.2825 -11.2775 -11.2719 -11.2635 -11.2530 -11.2517
-11.2431 -11.2412 -11.2290 -11.2289  -8.9846  -8.9845  -6.6655  -6.6654
 -6.6649  -6.6649  -6.6643  -6.6643  -1.1808  -1.1498  -1.0418  -1.0244
 -0.9987  -0.9528  -0.9143  -0.8943  -0.8001  -0.7633  -0.7217  -0.6956
 -0.6626  -0.6159  -0.5837  -0.5790  -0.5774  -0.5697  -0.5524  -0.5336
 -0.5256  -0.5200  -0.5109  -0.4956  -0.4877  -0.4671  -0.4534  -0.3644
 -0.3426  -0.3392  -0.2728

          Ground-State Mulliken Net Atomic Charges

     Atom                 Charge (a.u.)
  ----------------------------------------
      1 C                    -0.214903
      2 C                    -0.249856
      3 C                     0.038234
      4 H                     0.184749
      5 C                    -0.027396
      6 S                     0.015966
      7 C                    -0.307706
      8 H                     0.111962
      9 H                     0.120387
     10 H                     0.111453
     11 H                     0.205730
     12 C                     0.030803
     13 C                    -0.245206
     14 C                     0.019816
     15 H                     0.182352
     16 C                    -0.241130
     17 S                     0.017545
     18 C                    -0.270976
     19 H                     0.102895
     20 H                     0.108394
     21 H                     0.108161
     22 H                     0.198724
  ----------------------------------------
  Sum of atomic charges =     0.000000

                    Cartesian Multipole Moments
 -----------------------------------------------------------------
    Charge (ESU x 10^10)
                -0.0000
    Dipole Moment (Debye)
         X       1.1157      Y       0.1930      Z       0.0486
       Tot       1.1333
    Quadrupole Moments (Debye-Ang)
        XX     -90.7569     XY       0.7746     YY     -69.2427
        XZ      -2.7623     YZ       2.8886     ZZ     -81.5866

 Total job time:  565.47s(wall), 562.25s(cpu)
        *  Thank you very much for using Q-Chem.  Have a nice day.  *
