 Q-Chem 5.4, Q-Chem, Inc., Pleasanton, CA (2021)
 Q-Chem 5.4.0 for Intel X86 EM64T Linux

User input:
--------------------------------------------------------------
$molecule
0 1
C	-0.133897	-3.866725	-0.763475
C	0.106669	-3.703963	0.603206
C	0.185154	-2.357056	1.050446
H	0.226709	-4.561092	1.283024
C	0.000000	-1.440664	0.000000
S	-0.268206	-2.286957	-1.521018
C	0.437628	-1.978743	2.483610
H	0.549717	-2.878678	3.118875
H	-0.394664	-1.376015	2.903464
H	1.363110	-1.375728	2.593726
H	-0.237880	-4.783437	-1.354522
C	0.000000	0.000000	0.000000
C	0.431829	0.747884	1.099446
C	1.123799	1.946373	0.776721
H	0.247423	0.428497	2.136088
C	1.234147	2.137457	-0.612546
S	0.471221	0.816130	-1.486809
C	1.667694	2.888380	1.814609
H	1.454874	2.519768	2.836676
H	1.222009	3.901210	1.726239
H	2.767675	3.008788	1.726228
H	1.708773	2.959493	-1.161575
$end

$rem
JOBTYPE		SP
EXCHANGE	HF
CORRELATION	pRIMP2
BASIS		cc-pvtz
METHOD		rimp2
AUX_BASIS	rimp2-cc-pvtz
SOLVENT_METHOD	PCM
PURECART	11111
SYMMETRY	false
MEM_TOTAL	110000
SCF_CONVERGENCE = 6
THRESH=10
$end

$solvent
dielectric 4.90
$end
--------------------------------------------------------------

             Standard Nuclear Orientation (Angstroms)
    I     Atom           X                Y                Z
 ----------------------------------------------------------------
    1      C      -0.1338970000    -3.8667250000    -0.7634750000
    2      C       0.1066690000    -3.7039630000     0.6032060000
    3      C       0.1851540000    -2.3570560000     1.0504460000
    4      H       0.2267090000    -4.5610920000     1.2830240000
    5      C       0.0000000000    -1.4406640000     0.0000000000
    6      S      -0.2682060000    -2.2869570000    -1.5210180000
    7      C       0.4376280000    -1.9787430000     2.4836100000
    8      H       0.5497170000    -2.8786780000     3.1188750000
    9      H      -0.3946640000    -1.3760150000     2.9034640000
   10      H       1.3631100000    -1.3757280000     2.5937260000
   11      H      -0.2378800000    -4.7834370000    -1.3545220000
   12      C       0.0000000000     0.0000000000     0.0000000000
   13      C       0.4318290000     0.7478840000     1.0994460000
   14      C       1.1237990000     1.9463730000     0.7767210000
   15      H       0.2474230000     0.4284970000     2.1360880000
   16      C       1.2341470000     2.1374570000    -0.6125460000
   17      S       0.4712210000     0.8161300000    -1.4868090000
   18      C       1.6676940000     2.8883800000     1.8146090000
   19      H       1.4548740000     2.5197680000     2.8366760000
   20      H       1.2220090000     3.9012100000     1.7262390000
   21      H       2.7676750000     3.0087880000     1.7262280000
   22      H       1.7087730000     2.9594930000    -1.1615750000
 ----------------------------------------------------------------

   10   -1179.6661531464      5.34e-07  Convergence criterion met
 Total energy in the final basis set =    -1179.6661531464
        RIMP2         total energy =     -1181.6513701533 a.u.

                    Orbital Energies (a.u.)
 --------------------------------------------------------------

 Alpha MOs
 -- Occupied --
-91.9848 -91.9814 -11.2786 -11.2773 -11.2706 -11.2687 -11.2529 -11.2493
-11.2452 -11.2422 -11.2306 -11.2301  -8.9849  -8.9816  -6.6658  -6.6652
 -6.6646  -6.6626  -6.6620  -6.6614  -1.1834  -1.1494  -1.0432  -1.0267
 -0.9958  -0.9558  -0.9139  -0.8946  -0.8015  -0.7565  -0.7280  -0.7016
 -0.6597  -0.6142  -0.5925  -0.5823  -0.5706  -0.5629  -0.5516  -0.5408
 -0.5292  -0.5237  -0.5046  -0.4909  -0.4822  -0.4755  -0.4494  -0.3694
 -0.3482  -0.3358  -0.2669

          Ground-State Mulliken Net Atomic Charges

     Atom                 Charge (a.u.)
  ----------------------------------------
      1 C                    -0.221983
      2 C                    -0.247985
      3 C                     0.056702
      4 H                     0.184159
      5 C                    -0.034156
      6 S                     0.005054
      7 C                    -0.312460
      8 H                     0.116836
      9 H                     0.106613
     10 H                     0.111825
     11 H                     0.205767
     12 C                     0.022339
     13 C                    -0.263604
     14 C                     0.040677
     15 H                     0.198180
     16 C                    -0.240341
     17 S                     0.021612
     18 C                    -0.269132
     19 H                     0.101877
     20 H                     0.109078
     21 H                     0.108610
     22 H                     0.200333
  ----------------------------------------
  Sum of atomic charges =     0.000000

                    Cartesian Multipole Moments
 -----------------------------------------------------------------
    Charge (ESU x 10^10)
                -0.0000
    Dipole Moment (Debye)
         X       1.3973      Y       0.5250      Z       2.9921
       Tot       3.3438
    Quadrupole Moments (Debye-Ang)
        XX     -89.6107     XY       4.5780     YY     -72.0566
        XZ       1.5810     YZ      -1.4146     ZZ     -80.3171

 Total job time:  570.87s(wall), 567.91s(cpu)
        *  Thank you very much for using Q-Chem.  Have a nice day.  *
