 Q-Chem 5.4, Q-Chem, Inc., Pleasanton, CA (2021)
 Q-Chem 5.4.0 for Intel X86 EM64T Linux

User input:
--------------------------------------------------------------
$molecule
0 1
C	-0.670924	-3.866725	-0.388181
C	0.530648	-3.703963	0.306020
C	0.923703	-2.357056	0.533378
H	1.128579	-4.561092	0.651043
C	0.000000	-1.440664	0.000000
S	-1.337567	-2.286957	-0.772234
C	2.183857	-1.978743	1.261192
H	2.742548	-2.878678	1.583666
H	1.970497	-1.376015	2.168641
H	2.863099	-1.375728	0.623012
H	-1.190530	-4.783437	-0.688443
C	0.000000	0.000000	0.000000
C	0.747916	0.431772	1.099446
C	1.946425	1.123709	0.776721
H	0.428523	0.247378	2.136088
C	2.137531	1.234018	-0.612546
S	0.816154	0.471179	-1.486809
C	2.888455	1.667564	1.814609
H	2.519842	1.454746	2.836676
H	3.008896	2.767543	1.726239
H	3.901271	1.221850	1.726228
H	2.959587	1.708609	-1.161575
$end

$rem
JOBTYPE		SP
EXCHANGE	HF
CORRELATION	pRIMP2
BASIS		cc-pvtz
METHOD		rimp2
AUX_BASIS	rimp2-cc-pvtz
SOLVENT_METHOD	PCM
PURECART	11111
SYMMETRY	false
MEM_TOTAL	110000
SCF_CONVERGENCE = 6
THRESH=10
$end

$solvent
dielectric 4.90
$end
--------------------------------------------------------------

             Standard Nuclear Orientation (Angstroms)
    I     Atom           X                Y                Z
 ----------------------------------------------------------------
    1      C      -0.6709240000    -3.8667250000    -0.3881810000
    2      C       0.5306480000    -3.7039630000     0.3060200000
    3      C       0.9237030000    -2.3570560000     0.5333780000
    4      H       1.1285790000    -4.5610920000     0.6510430000
    5      C       0.0000000000    -1.4406640000     0.0000000000
    6      S      -1.3375670000    -2.2869570000    -0.7722340000
    7      C       2.1838570000    -1.9787430000     1.2611920000
    8      H       2.7425480000    -2.8786780000     1.5836660000
    9      H       1.9704970000    -1.3760150000     2.1686410000
   10      H       2.8630990000    -1.3757280000     0.6230120000
   11      H      -1.1905300000    -4.7834370000    -0.6884430000
   12      C       0.0000000000     0.0000000000     0.0000000000
   13      C       0.7479160000     0.4317720000     1.0994460000
   14      C       1.9464250000     1.1237090000     0.7767210000
   15      H       0.4285230000     0.2473780000     2.1360880000
   16      C       2.1375310000     1.2340180000    -0.6125460000
   17      S       0.8161540000     0.4711790000    -1.4868090000
   18      C       2.8884550000     1.6675640000     1.8146090000
   19      H       2.5198420000     1.4547460000     2.8366760000
   20      H       3.0088960000     2.7675430000     1.7262390000
   21      H       3.9012710000     1.2218500000     1.7262280000
   22      H       2.9595870000     1.7086090000    -1.1615750000
 ----------------------------------------------------------------

   11   -1179.6114225934      4.66e-07  Convergence criterion met
 Total energy in the final basis set =    -1179.6114225934
        RIMP2         total energy =     -1181.6098042446 a.u.

                    Orbital Energies (a.u.)
 --------------------------------------------------------------

 Alpha MOs
 -- Occupied --
-91.9829 -91.9726 -11.2896 -11.2743 -11.2654 -11.2619 -11.2532 -11.2503
-11.2412 -11.2373 -11.2323 -11.2253  -8.9834  -8.9730  -6.6641  -6.6633
 -6.6630  -6.6539  -6.6533  -6.6527  -1.1918  -1.1451  -1.0466  -1.0213
 -0.9988  -0.9520  -0.9141  -0.8905  -0.7950  -0.7516  -0.7406  -0.6984
 -0.6539  -0.6204  -0.5901  -0.5851  -0.5685  -0.5660  -0.5492  -0.5382
 -0.5267  -0.5235  -0.5110  -0.4869  -0.4703  -0.4608  -0.4475  -0.3498
 -0.3375  -0.3328  -0.2800

          Ground-State Mulliken Net Atomic Charges

     Atom                 Charge (a.u.)
  ----------------------------------------
      1 C                    -0.221510
      2 C                    -0.264433
      3 C                     0.038826
      4 H                     0.181942
      5 C                     0.021532
      6 S                    -0.006794
      7 C                    -0.320982
      8 H                     0.117926
      9 H                     0.109453
     10 H                     0.118269
     11 H                     0.200176
     12 C                    -0.178605
     13 C                    -0.106610
     14 C                    -0.025474
     15 H                     0.195197
     16 C                    -0.165865
     17 S                     0.044002
     18 C                    -0.275359
     19 H                     0.106272
     20 H                     0.121482
     21 H                     0.106868
     22 H                     0.203689
  ----------------------------------------
  Sum of atomic charges =     0.000000

                    Cartesian Multipole Moments
 -----------------------------------------------------------------
    Charge (ESU x 10^10)
                -0.0000
    Dipole Moment (Debye)
         X       4.2997      Y       0.8341      Z       2.4809
       Tot       5.0337
    Quadrupole Moments (Debye-Ang)
        XX     -78.5275     XY       3.5416     YY     -80.1468
        XZ       3.0160     YZ      -0.6513     ZZ     -84.4559

 Total job time:  672.52s(wall), 669.21s(cpu)
        *  Thank you very much for using Q-Chem.  Have a nice day.  *
