 Q-Chem 5.4, Q-Chem, Inc., Pleasanton, CA (2021)
 Q-Chem 5.4.0 for Intel X86 EM64T Linux

User input:
--------------------------------------------------------------
$molecule
0 1
C	0.775127	-3.866725	0.000713
C	-0.612565	-3.703963	0.000302
C	-1.066639	-2.357056	-0.000067
H	-1.302900	-4.561092	0.000470
C	-0.000000	-1.440664	-0.000000
S	1.544483	-2.286957	-0.000009
C	-2.521872	-1.978743	-0.000295
H	-3.166949	-2.878678	-0.000221
H	-2.790821	-1.376015	-0.892850
H	-2.791023	-1.375728	0.892005
H	1.375251	-4.783437	0.000945
C	0.000000	0.000000	0.000000
C	0.075300	0.860311	1.099446
C	0.195935	2.238951	0.776721
H	0.043151	0.492916	2.136088
C	0.215188	2.458766	-0.612546
S	0.082160	0.938811	-1.486809
C	0.290762	3.322559	1.814609
H	0.253664	2.898542	2.836676
H	-0.541206	4.052140	1.726239
H	1.236797	3.896558	1.726228
H	0.297938	3.404370	-1.161575
$end

$rem
JOBTYPE		SP
EXCHANGE	HF
CORRELATION	pRIMP2
BASIS		cc-pvtz
METHOD		rimp2
AUX_BASIS	rimp2-cc-pvtz
SOLVENT_METHOD	PCM
PURECART	11111
SYMMETRY	false
MEM_TOTAL	110000
SCF_CONVERGENCE = 6
THRESH=10
$end

$solvent
dielectric 4.90
$end
--------------------------------------------------------------

             Standard Nuclear Orientation (Angstroms)
    I     Atom           X                Y                Z
 ----------------------------------------------------------------
    1      C       0.7751270000    -3.8667250000     0.0007130000
    2      C      -0.6125650000    -3.7039630000     0.0003020000
    3      C      -1.0666390000    -2.3570560000    -0.0000670000
    4      H      -1.3029000000    -4.5610920000     0.0004700000
    5      C       0.0000000000    -1.4406640000     0.0000000000
    6      S       1.5444830000    -2.2869570000    -0.0000090000
    7      C      -2.5218720000    -1.9787430000    -0.0002950000
    8      H      -3.1669490000    -2.8786780000    -0.0002210000
    9      H      -2.7908210000    -1.3760150000    -0.8928500000
   10      H      -2.7910230000    -1.3757280000     0.8920050000
   11      H       1.3752510000    -4.7834370000     0.0009450000
   12      C       0.0000000000     0.0000000000     0.0000000000
   13      C       0.0753000000     0.8603110000     1.0994460000
   14      C       0.1959350000     2.2389510000     0.7767210000
   15      H       0.0431510000     0.4929160000     2.1360880000
   16      C       0.2151880000     2.4587660000    -0.6125460000
   17      S       0.0821600000     0.9388110000    -1.4868090000
   18      C       0.2907620000     3.3225590000     1.8146090000
   19      H       0.2536640000     2.8985420000     2.8366760000
   20      H      -0.5412060000     4.0521400000     1.7262390000
   21      H       1.2367970000     3.8965580000     1.7262280000
   22      H       0.2979380000     3.4043700000    -1.1615750000
 ----------------------------------------------------------------

   10   -1179.6851356135      5.04e-07  Convergence criterion met
 Total energy in the final basis set =    -1179.6851356135
        RIMP2         total energy =     -1181.6628552774 a.u.

                    Orbital Energies (a.u.)
 --------------------------------------------------------------

 Alpha MOs
 -- Occupied --
-91.9853 -91.9845 -11.2784 -11.2726 -11.2724 -11.2648 -11.2541 -11.2507
-11.2425 -11.2417 -11.2294 -11.2289  -8.9847  -8.9841  -6.6656  -6.6651
 -6.6650  -6.6645  -6.6644  -6.6638  -1.1783  -1.1495  -1.0399  -1.0231
 -0.9971  -0.9540  -0.9135  -0.8922  -0.8008  -0.7539  -0.7303  -0.6948
 -0.6624  -0.6162  -0.5825  -0.5791  -0.5709  -0.5691  -0.5520  -0.5313
 -0.5297  -0.5199  -0.5075  -0.4919  -0.4880  -0.4639  -0.4633  -0.3467
 -0.3375  -0.3131  -0.3115

          Ground-State Mulliken Net Atomic Charges

     Atom                 Charge (a.u.)
  ----------------------------------------
      1 C                    -0.210144
      2 C                    -0.249204
      3 C                     0.047702
      4 H                     0.184119
      5 C                    -0.053254
      6 S                     0.025417
      7 C                    -0.281323
      8 H                     0.107041
      9 H                     0.110295
     10 H                     0.109822
     11 H                     0.204419
     12 C                    -0.005550
     13 C                    -0.228725
     14 C                     0.018680
     15 H                     0.186068
     16 C                    -0.237916
     17 S                     0.027282
     18 C                    -0.271259
     19 H                     0.102686
     20 H                     0.107770
     21 H                     0.108335
     22 H                     0.197737
  ----------------------------------------
  Sum of atomic charges =     0.000000

                    Cartesian Multipole Moments
 -----------------------------------------------------------------
    Charge (ESU x 10^10)
                -0.0000
    Dipole Moment (Debye)
         X      -1.3376      Y       0.2400      Z       1.4457
       Tot       1.9841
    Quadrupole Moments (Debye-Ang)
        XX     -86.0445     XY       3.0834     YY     -68.7903
        XZ       0.1119     YZ       1.0231     ZZ     -86.7284

 Total job time:  555.60s(wall), 551.47s(cpu)
        *  Thank you very much for using Q-Chem.  Have a nice day.  *
