 Q-Chem 5.4, Q-Chem, Inc., Pleasanton, CA (2021)
 Q-Chem 5.4.0 for Intel X86 EM64T Linux

User input:
--------------------------------------------------------------
$molecule
0 1
C	0.000713	-3.866725	-0.775127
C	0.000302	-3.703963	0.612565
C	-0.000067	-2.357056	1.066639
H	0.000470	-4.561092	1.302900
C	-0.000000	-1.440664	-0.000000
S	-0.000009	-2.286957	-1.544483
C	-0.000295	-1.978743	2.521872
H	-0.000221	-2.878678	3.166949
H	-0.892850	-1.376015	2.790821
H	0.892005	-1.375728	2.791023
H	0.000945	-4.783437	-1.375251
C	0.000000	0.000000	0.000000
C	0.075300	0.860311	1.099446
C	0.195935	2.238951	0.776721
H	0.043151	0.492916	2.136088
C	0.215188	2.458766	-0.612546
S	0.082160	0.938811	-1.486809
C	0.290762	3.322559	1.814609
H	0.253664	2.898542	2.836676
H	-0.541206	4.052140	1.726239
H	1.236797	3.896558	1.726228
H	0.297938	3.404370	-1.161575
$end

$rem
JOBTYPE		SP
EXCHANGE	HF
CORRELATION	pRIMP2
BASIS		cc-pvtz
METHOD		rimp2
AUX_BASIS	rimp2-cc-pvtz
SOLVENT_METHOD	PCM
PURECART	11111
SYMMETRY	false
MEM_TOTAL	110000
SCF_CONVERGENCE = 6
THRESH=10
$end

$solvent
dielectric 4.90
$end
--------------------------------------------------------------

             Standard Nuclear Orientation (Angstroms)
    I     Atom           X                Y                Z
 ----------------------------------------------------------------
    1      C       0.0007130000    -3.8667250000    -0.7751270000
    2      C       0.0003020000    -3.7039630000     0.6125650000
    3      C      -0.0000670000    -2.3570560000     1.0666390000
    4      H       0.0004700000    -4.5610920000     1.3029000000
    5      C       0.0000000000    -1.4406640000     0.0000000000
    6      S      -0.0000090000    -2.2869570000    -1.5444830000
    7      C      -0.0002950000    -1.9787430000     2.5218720000
    8      H      -0.0002210000    -2.8786780000     3.1669490000
    9      H      -0.8928500000    -1.3760150000     2.7908210000
   10      H       0.8920050000    -1.3757280000     2.7910230000
   11      H       0.0009450000    -4.7834370000    -1.3752510000
   12      C       0.0000000000     0.0000000000     0.0000000000
   13      C       0.0753000000     0.8603110000     1.0994460000
   14      C       0.1959350000     2.2389510000     0.7767210000
   15      H       0.0431510000     0.4929160000     2.1360880000
   16      C       0.2151880000     2.4587660000    -0.6125460000
   17      S       0.0821600000     0.9388110000    -1.4868090000
   18      C       0.2907620000     3.3225590000     1.8146090000
   19      H       0.2536640000     2.8985420000     2.8366760000
   20      H      -0.5412060000     4.0521400000     1.7262390000
   21      H       1.2367970000     3.8965580000     1.7262280000
   22      H       0.2979380000     3.4043700000    -1.1615750000
 ----------------------------------------------------------------

   10   -1179.6851425436      5.22e-07  Convergence criterion met
 Total energy in the final basis set =    -1179.6851425436
        RIMP2         total energy =     -1181.6653027241 a.u.

                    Orbital Energies (a.u.)
 --------------------------------------------------------------

 Alpha MOs
 -- Occupied --
-91.9858 -91.9851 -11.2840 -11.2789 -11.2730 -11.2640 -11.2544 -11.2522
-11.2442 -11.2395 -11.2321 -11.2294  -8.9856  -8.9852  -6.6666  -6.6661
 -6.6660  -6.6656  -6.6654  -6.6649  -1.1818  -1.1505  -1.0422  -1.0282
 -0.9959  -0.9565  -0.9150  -0.8948  -0.8037  -0.7574  -0.7268  -0.7012
 -0.6625  -0.6140  -0.5910  -0.5824  -0.5701  -0.5642  -0.5525  -0.5403
 -0.5296  -0.5241  -0.5041  -0.4909  -0.4890  -0.4781  -0.4504  -0.3714
 -0.3482  -0.3374  -0.2685

          Ground-State Mulliken Net Atomic Charges

     Atom                 Charge (a.u.)
  ----------------------------------------
      1 C                    -0.211931
      2 C                    -0.257291
      3 C                     0.078597
      4 H                     0.184265
      5 C                    -0.051880
      6 S                     0.007184
      7 C                    -0.316521
      8 H                     0.120138
      9 H                     0.110853
     10 H                     0.110315
     11 H                     0.208140
     12 C                     0.037184
     13 C                    -0.238248
     14 C                     0.021190
     15 H                     0.195508
     16 C                    -0.250897
     17 S                     0.005903
     18 C                    -0.271727
     19 H                     0.101278
     20 H                     0.108612
     21 H                     0.108949
     22 H                     0.200379
  ----------------------------------------
  Sum of atomic charges =     0.000000

                    Cartesian Multipole Moments
 -----------------------------------------------------------------
    Charge (ESU x 10^10)
                -0.0000
    Dipole Moment (Debye)
         X       0.1645      Y       0.1044      Z       2.9413
       Tot       2.9477
    Quadrupole Moments (Debye-Ang)
        XX     -92.7068     XY       0.9575     YY     -68.2568
        XZ       0.0910     YZ      -1.1819     ZZ     -80.0171

 Total job time:  566.68s(wall), 562.76s(cpu)
        *  Thank you very much for using Q-Chem.  Have a nice day.  *
