 Q-Chem 5.4, Q-Chem, Inc., Pleasanton, CA (2021)
 Q-Chem 5.4.0 for Intel X86 EM64T Linux

User input:
--------------------------------------------------------------
$molecule
0 1
C	-0.593324	-3.866725	-0.498788
C	0.469446	-3.703963	0.393517
C	0.817050	-2.357056	0.685674
H	0.998381	-4.561092	0.837128
C	-0.000000	-1.440664	-0.000000
S	-1.183149	-2.286957	-0.992768
C	1.931676	-1.978743	1.621254
H	2.425882	-2.878678	2.035845
H	1.563980	-1.376015	2.477868
H	2.711417	-1.375728	1.110719
H	-1.052896	-4.783437	-0.884718
C	0.000000	0.000000	0.000000
C	0.365003	0.782674	1.099446
C	0.949885	2.036912	0.776721
H	0.209135	0.448431	2.136088
C	1.043159	2.236886	-0.612546
S	0.398297	0.854094	-1.486809
C	1.409609	3.022738	1.814609
H	1.229726	2.636980	2.836676
H	0.877346	3.992870	1.726239
H	2.494910	3.238558	1.726228
H	1.444334	3.097160	-1.161575
$end

$rem
JOBTYPE		SP
EXCHANGE	HF
CORRELATION	pRIMP2
BASIS		cc-pvtz
METHOD		rimp2
AUX_BASIS	rimp2-cc-pvtz
SOLVENT_METHOD	PCM
PURECART	11111
SYMMETRY	false
MEM_TOTAL	110000
SCF_CONVERGENCE = 6
THRESH=10
$end

$solvent
dielectric 4.90
$end
--------------------------------------------------------------

             Standard Nuclear Orientation (Angstroms)
    I     Atom           X                Y                Z
 ----------------------------------------------------------------
    1      C      -0.5933240000    -3.8667250000    -0.4987880000
    2      C       0.4694460000    -3.7039630000     0.3935170000
    3      C       0.8170500000    -2.3570560000     0.6856740000
    4      H       0.9983810000    -4.5610920000     0.8371280000
    5      C       0.0000000000    -1.4406640000     0.0000000000
    6      S      -1.1831490000    -2.2869570000    -0.9927680000
    7      C       1.9316760000    -1.9787430000     1.6212540000
    8      H       2.4258820000    -2.8786780000     2.0358450000
    9      H       1.5639800000    -1.3760150000     2.4778680000
   10      H       2.7114170000    -1.3757280000     1.1107190000
   11      H      -1.0528960000    -4.7834370000    -0.8847180000
   12      C       0.0000000000     0.0000000000     0.0000000000
   13      C       0.3650030000     0.7826740000     1.0994460000
   14      C       0.9498850000     2.0369120000     0.7767210000
   15      H       0.2091350000     0.4484310000     2.1360880000
   16      C       1.0431590000     2.2368860000    -0.6125460000
   17      S       0.3982970000     0.8540940000    -1.4868090000
   18      C       1.4096090000     3.0227380000     1.8146090000
   19      H       1.2297260000     2.6369800000     2.8366760000
   20      H       0.8773460000     3.9928700000     1.7262390000
   21      H       2.4949100000     3.2385580000     1.7262280000
   22      H       1.4443340000     3.0971600000    -1.1615750000
 ----------------------------------------------------------------

   10   -1179.6745330320      5.44e-07  Convergence criterion met
 Total energy in the final basis set =    -1179.6745330320
        RIMP2         total energy =     -1181.6568233595 a.u.

                    Orbital Energies (a.u.)
 --------------------------------------------------------------

 Alpha MOs
 -- Occupied --
-91.9849 -91.9820 -11.2755 -11.2745 -11.2709 -11.2686 -11.2524 -11.2520
-11.2446 -11.2419 -11.2298 -11.2287  -8.9846  -8.9819  -6.6655  -6.6649
 -6.6643  -6.6628  -6.6623  -6.6617  -1.1805  -1.1493  -1.0414  -1.0237
 -0.9964  -0.9549  -0.9131  -0.8928  -0.8001  -0.7535  -0.7314  -0.6979
 -0.6606  -0.6156  -0.5863  -0.5803  -0.5711  -0.5646  -0.5512  -0.5359
 -0.5282  -0.5224  -0.5082  -0.4912  -0.4819  -0.4679  -0.4578  -0.3485
 -0.3421  -0.3401  -0.2819

          Ground-State Mulliken Net Atomic Charges

     Atom                 Charge (a.u.)
  ----------------------------------------
      1 C                    -0.211906
      2 C                    -0.251188
      3 C                     0.060764
      4 H                     0.184012
      5 C                    -0.030682
      6 S                     0.015951
      7 C                    -0.286960
      8 H                     0.113084
      9 H                     0.106471
     10 H                     0.115929
     11 H                     0.204683
     12 C                    -0.023403
     13 C                    -0.276008
     14 C                     0.047036
     15 H                     0.192993
     16 C                    -0.239345
     17 S                     0.029845
     18 C                    -0.269431
     19 H                     0.102376
     20 H                     0.108847
     21 H                     0.108081
     22 H                     0.198852
  ----------------------------------------
  Sum of atomic charges =     0.000000

                    Cartesian Multipole Moments
 -----------------------------------------------------------------
    Charge (ESU x 10^10)
                -0.0000
    Dipole Moment (Debye)
         X       2.0900      Y       0.3818      Z       2.4983
       Tot       3.2796
    Quadrupole Moments (Debye-Ang)
        XX     -86.9410     XY       2.6610     YY     -70.8957
        XZ       3.5721     YZ      -0.5189     ZZ     -84.0043

 Total job time:  564.93s(wall), 560.93s(cpu)
        *  Thank you very much for using Q-Chem.  Have a nice day.  *
