 Q-Chem 5.4, Q-Chem, Inc., Pleasanton, CA (2021)
 Q-Chem 5.4.0 for Intel X86 EM64T Linux

User input:
--------------------------------------------------------------
$molecule
0 1
C	0.264439	-3.866725	0.728625
C	-0.209794	-3.703963	-0.575519
C	-0.364749	-2.357056	-1.002336
H	-0.446060	-4.561092	-1.224165
C	0.000000	-1.440664	0.000000
S	0.528253	-2.286957	1.451336
C	-0.862253	-1.978743	-2.369885
H	-1.082953	-2.878678	-2.976034
H	-0.115513	-1.376015	-2.927887
H	-1.792797	-1.375728	-2.317620
H	0.469476	-4.783437	1.292636
C	0.000000	0.000000	0.000000
C	0.747916	0.431772	1.099446
C	1.946425	1.123709	0.776721
H	0.428523	0.247378	2.136088
C	2.137531	1.234018	-0.612546
S	0.816154	0.471179	-1.486809
C	2.888455	1.667564	1.814609
H	2.519842	1.454746	2.836676
H	3.008896	2.767543	1.726239
H	3.901271	1.221850	1.726228
H	2.959587	1.708609	-1.161575
$end

$rem
JOBTYPE		SP
EXCHANGE	HF
CORRELATION	pRIMP2
BASIS		cc-pvtz
METHOD		rimp2
AUX_BASIS	rimp2-cc-pvtz
SOLVENT_METHOD	PCM
PURECART	11111
SYMMETRY	false
MEM_TOTAL	110000
SCF_CONVERGENCE = 6
THRESH=10
$end

$solvent
dielectric 4.90
$end
--------------------------------------------------------------

             Standard Nuclear Orientation (Angstroms)
    I     Atom           X                Y                Z
 ----------------------------------------------------------------
    1      C       0.2644390000    -3.8667250000     0.7286250000
    2      C      -0.2097940000    -3.7039630000    -0.5755190000
    3      C      -0.3647490000    -2.3570560000    -1.0023360000
    4      H      -0.4460600000    -4.5610920000    -1.2241650000
    5      C       0.0000000000    -1.4406640000     0.0000000000
    6      S       0.5282530000    -2.2869570000     1.4513360000
    7      C      -0.8622530000    -1.9787430000    -2.3698850000
    8      H      -1.0829530000    -2.8786780000    -2.9760340000
    9      H      -0.1155130000    -1.3760150000    -2.9278870000
   10      H      -1.7927970000    -1.3757280000    -2.3176200000
   11      H       0.4694760000    -4.7834370000     1.2926360000
   12      C       0.0000000000     0.0000000000     0.0000000000
   13      C       0.7479160000     0.4317720000     1.0994460000
   14      C       1.9464250000     1.1237090000     0.7767210000
   15      H       0.4285230000     0.2473780000     2.1360880000
   16      C       2.1375310000     1.2340180000    -0.6125460000
   17      S       0.8161540000     0.4711790000    -1.4868090000
   18      C       2.8884550000     1.6675640000     1.8146090000
   19      H       2.5198420000     1.4547460000     2.8366760000
   20      H       3.0088960000     2.7675430000     1.7262390000
   21      H       3.9012710000     1.2218500000     1.7262280000
   22      H       2.9595870000     1.7086090000    -1.1615750000
 ----------------------------------------------------------------

   11   -1179.6107291707      6.17e-07  Convergence criterion met
 Total energy in the final basis set =    -1179.6107291707
        RIMP2         total energy =     -1181.6080020091 a.u.

                    Orbital Energies (a.u.)
 --------------------------------------------------------------

 Alpha MOs
 -- Occupied --
-91.9858 -91.9758 -11.2933 -11.2782 -11.2667 -11.2571 -11.2570 -11.2549
-11.2371 -11.2321 -11.2320 -11.2237  -8.9865  -8.9762  -6.6672  -6.6664
 -6.6660  -6.6571  -6.6565  -6.6558  -1.1951  -1.1450  -1.0484  -1.0226
 -1.0024  -0.9471  -0.9146  -0.8923  -0.7975  -0.7684  -0.7262  -0.6896
 -0.6557  -0.6222  -0.5916  -0.5824  -0.5759  -0.5698  -0.5505  -0.5357
 -0.5295  -0.5149  -0.5084  -0.4954  -0.4685  -0.4650  -0.4462  -0.3633
 -0.3493  -0.3328  -0.2626

          Ground-State Mulliken Net Atomic Charges

     Atom                 Charge (a.u.)
  ----------------------------------------
      1 C                    -0.260983
      2 C                    -0.237153
      3 C                     0.001830
      4 H                     0.181334
      5 C                     0.014166
      6 S                    -0.012863
      7 C                    -0.308061
      8 H                     0.108463
      9 H                     0.107269
     10 H                     0.112197
     11 H                     0.199725
     12 C                    -0.116599
     13 C                    -0.134754
     14 C                    -0.001659
     15 H                     0.197032
     16 C                    -0.170855
     17 S                     0.059690
     18 C                    -0.265204
     19 H                     0.104615
     20 H                     0.109282
     21 H                     0.107810
     22 H                     0.204717
  ----------------------------------------
  Sum of atomic charges =     0.000000

                    Cartesian Multipole Moments
 -----------------------------------------------------------------
    Charge (ESU x 10^10)
                -0.0000
    Dipole Moment (Debye)
         X       2.5526      Y       1.3863      Z       0.1440
       Tot       2.9083
    Quadrupole Moments (Debye-Ang)
        XX     -81.9180     XY       6.7185     YY     -81.5050
        XZ       2.2142     YZ       2.9620     ZZ     -80.4327

 Total job time:  635.58s(wall), 631.44s(cpu)
        *  Thank you very much for using Q-Chem.  Have a nice day.  *
