 Q-Chem 5.4, Q-Chem, Inc., Pleasanton, CA (2021)
 Q-Chem 5.4.0 for Intel X86 EM64T Linux

User input:
--------------------------------------------------------------
$molecule
0 1
C	-0.763475	-3.866725	0.133897
C	0.603206	-3.703963	-0.106669
C	1.050446	-2.357056	-0.185154
H	1.283024	-4.561092	-0.226709
C	0.000000	-1.440664	0.000000
S	-1.521018	-2.286957	0.268206
C	2.483610	-1.978743	-0.437628
H	3.118875	-2.878678	-0.549717
H	2.903464	-1.376015	0.394664
H	2.593726	-1.375728	-1.363110
H	-1.354522	-4.783437	0.237880
C	0.000000	0.000000	0.000000
C	0.223548	0.834165	1.099446
C	0.581748	2.170912	0.776721
H	0.128089	0.477934	2.136088
C	0.638880	2.384045	-0.612546
S	0.243934	0.910282	-1.486809
C	0.863301	3.221592	1.814609
H	0.753137	2.810458	2.836676
H	0.170663	4.084559	1.726239
H	1.894637	3.622593	1.726228
H	0.884575	3.300913	-1.161575
$end

$rem
JOBTYPE		SP
EXCHANGE	HF
CORRELATION	pRIMP2
BASIS		cc-pvtz
METHOD		rimp2
AUX_BASIS	rimp2-cc-pvtz
SOLVENT_METHOD	PCM
PURECART	11111
SYMMETRY	false
MEM_TOTAL	110000
SCF_CONVERGENCE = 6
THRESH=10
$end

$solvent
dielectric 4.90
$end
--------------------------------------------------------------

             Standard Nuclear Orientation (Angstroms)
    I     Atom           X                Y                Z
 ----------------------------------------------------------------
    1      C      -0.7634750000    -3.8667250000     0.1338970000
    2      C       0.6032060000    -3.7039630000    -0.1066690000
    3      C       1.0504460000    -2.3570560000    -0.1851540000
    4      H       1.2830240000    -4.5610920000    -0.2267090000
    5      C       0.0000000000    -1.4406640000     0.0000000000
    6      S      -1.5210180000    -2.2869570000     0.2682060000
    7      C       2.4836100000    -1.9787430000    -0.4376280000
    8      H       3.1188750000    -2.8786780000    -0.5497170000
    9      H       2.9034640000    -1.3760150000     0.3946640000
   10      H       2.5937260000    -1.3757280000    -1.3631100000
   11      H      -1.3545220000    -4.7834370000     0.2378800000
   12      C       0.0000000000     0.0000000000     0.0000000000
   13      C       0.2235480000     0.8341650000     1.0994460000
   14      C       0.5817480000     2.1709120000     0.7767210000
   15      H       0.1280890000     0.4779340000     2.1360880000
   16      C       0.6388800000     2.3840450000    -0.6125460000
   17      S       0.2439340000     0.9102820000    -1.4868090000
   18      C       0.8633010000     3.2215920000     1.8146090000
   19      H       0.7531370000     2.8104580000     2.8366760000
   20      H       0.1706630000     4.0845590000     1.7262390000
   21      H       1.8946370000     3.6225930000     1.7262280000
   22      H       0.8845750000     3.3009130000    -1.1615750000
 ----------------------------------------------------------------

   10   -1179.6812549760      5.13e-07  Convergence criterion met
 Total energy in the final basis set =    -1179.6812549760
        RIMP2         total energy =     -1181.6608058684 a.u.

                    Orbital Energies (a.u.)
 --------------------------------------------------------------

 Alpha MOs
 -- Occupied --
-91.9854 -91.9834 -11.2771 -11.2731 -11.2712 -11.2665 -11.2533 -11.2512
-11.2441 -11.2416 -11.2292 -11.2286  -8.9848  -8.9831  -6.6657  -6.6652
 -6.6646  -6.6640  -6.6634  -6.6628  -1.1787  -1.1494  -1.0404  -1.0221
 -0.9976  -0.9539  -0.9133  -0.8920  -0.7999  -0.7548  -0.7300  -0.6953
 -0.6617  -0.6164  -0.5817  -0.5790  -0.5723  -0.5694  -0.5517  -0.5312
 -0.5290  -0.5200  -0.5094  -0.4919  -0.4852  -0.4647  -0.4606  -0.3449
 -0.3408  -0.3198  -0.3032

          Ground-State Mulliken Net Atomic Charges

     Atom                 Charge (a.u.)
  ----------------------------------------
      1 C                    -0.217000
      2 C                    -0.248296
      3 C                     0.056536
      4 H                     0.184071
      5 C                    -0.032424
      6 S                     0.027189
      7 C                    -0.280338
      8 H                     0.108398
      9 H                     0.110382
     10 H                     0.110607
     11 H                     0.203813
     12 C                    -0.040023
     13 C                    -0.231006
     14 C                     0.022838
     15 H                     0.186576
     16 C                    -0.235705
     17 S                     0.028512
     18 C                    -0.270911
     19 H                     0.102824
     20 H                     0.108327
     21 H                     0.107738
     22 H                     0.197891
  ----------------------------------------
  Sum of atomic charges =     0.000000

                    Cartesian Multipole Moments
 -----------------------------------------------------------------
    Charge (ESU x 10^10)
                -0.0000
    Dipole Moment (Debye)
         X       2.0195      Y       0.3586      Z       1.1875
       Tot       2.3701
    Quadrupole Moments (Debye-Ang)
        XX     -85.7214     XY       0.6039     YY     -69.7344
        XZ      -0.8787     YZ       1.3764     ZZ     -86.4610

 Total job time:  555.92s(wall), 552.36s(cpu)
        *  Thank you very much for using Q-Chem.  Have a nice day.  *
