 Q-Chem 5.4, Q-Chem, Inc., Pleasanton, CA (2021)
 Q-Chem 5.4.0 for Intel X86 EM64T Linux

User input:
--------------------------------------------------------------
$molecule
0 1
C	0.336297	-3.852073	0.775127
C	0.322520	-3.689895	-0.612565
C	0.205498	-2.348081	-1.066639
H	0.397057	-4.543777	-1.302900
C	0.125562	-1.435182	0.000000
S	0.199331	-2.278254	1.544483
C	0.172753	-1.971188	-2.521872
H	0.251114	-2.867704	-3.166949
H	1.009380	-1.292962	-2.790821
H	-0.768708	-1.448236	-2.791023
H	0.415963	-4.765317	1.375251
C	0.000000	0.000000	0.000000
C	0.149995	0.850475	1.099446
C	0.390327	2.213354	0.776721
H	0.085947	0.487279	2.136088
C	0.428665	2.430655	-0.612546
S	0.163670	0.928078	-1.486809
C	0.579235	3.284574	1.814609
H	0.505323	2.865404	2.836676
H	-0.185980	4.083890	1.726239
H	1.571698	3.773937	1.726228
H	0.593515	3.365448	-1.161575
$end

$rem
JOBTYPE		SP
EXCHANGE	HF
CORRELATION	pRIMP2
BASIS		cc-pvtz
METHOD		rimp2
AUX_BASIS	rimp2-cc-pvtz
SOLVENT_METHOD	PCM
PURECART	11111
SYMMETRY	false
MEM_TOTAL	110000
SCF_CONVERGENCE = 6
THRESH=10
$end

$solvent
dielectric 4.90
$end
--------------------------------------------------------------

             Standard Nuclear Orientation (Angstroms)
    I     Atom           X                Y                Z
 ----------------------------------------------------------------
    1      C       0.3362970000    -3.8520730000     0.7751270000
    2      C       0.3225200000    -3.6898950000    -0.6125650000
    3      C       0.2054980000    -2.3480810000    -1.0666390000
    4      H       0.3970570000    -4.5437770000    -1.3029000000
    5      C       0.1255620000    -1.4351820000     0.0000000000
    6      S       0.1993310000    -2.2782540000     1.5444830000
    7      C       0.1727530000    -1.9711880000    -2.5218720000
    8      H       0.2511140000    -2.8677040000    -3.1669490000
    9      H       1.0093800000    -1.2929620000    -2.7908210000
   10      H      -0.7687080000    -1.4482360000    -2.7910230000
   11      H       0.4159630000    -4.7653170000     1.3752510000
   12      C       0.0000000000     0.0000000000     0.0000000000
   13      C       0.1499950000     0.8504750000     1.0994460000
   14      C       0.3903270000     2.2133540000     0.7767210000
   15      H       0.0859470000     0.4872790000     2.1360880000
   16      C       0.4286650000     2.4306550000    -0.6125460000
   17      S       0.1636700000     0.9280780000    -1.4868090000
   18      C       0.5792350000     3.2845740000     1.8146090000
   19      H       0.5053230000     2.8654040000     2.8366760000
   20      H      -0.1859800000     4.0838900000     1.7262390000
   21      H       1.5716980000     3.7739370000     1.7262280000
   22      H       0.5935150000     3.3654480000    -1.1615750000
 ----------------------------------------------------------------

   10   -1179.6816479043      5.20e-07  Convergence criterion met
 Total energy in the final basis set =    -1179.6816479043
        RIMP2         total energy =     -1181.6634801051 a.u.

                    Orbital Energies (a.u.)
 --------------------------------------------------------------

 Alpha MOs
 -- Occupied --
-91.9850 -91.9841 -11.2832 -11.2786 -11.2723 -11.2628 -11.2533 -11.2524
-11.2434 -11.2406 -11.2300 -11.2289  -8.9848  -8.9841  -6.6657  -6.6651
 -6.6651  -6.6645  -6.6645  -6.6639  -1.1819  -1.1499  -1.0425  -1.0258
 -0.9990  -0.9523  -0.9150  -0.8953  -0.8001  -0.7657  -0.7196  -0.6959
 -0.6631  -0.6158  -0.5845  -0.5828  -0.5775  -0.5696  -0.5531  -0.5343
 -0.5230  -0.5213  -0.5119  -0.4964  -0.4892  -0.4672  -0.4500  -0.3715
 -0.3433  -0.3404  -0.2675

          Ground-State Mulliken Net Atomic Charges

     Atom                 Charge (a.u.)
  ----------------------------------------
      1 C                    -0.212552
      2 C                    -0.252986
      3 C                     0.049930
      4 H                     0.184918
      5 C                    -0.024249
      6 S                     0.004114
      7 C                    -0.322167
      8 H                     0.118147
      9 H                     0.115657
     10 H                     0.116200
     11 H                     0.207297
     12 C                     0.062218
     13 C                    -0.279283
     14 C                     0.042188
     15 H                     0.176310
     16 C                    -0.260134
     17 S                     0.025126
     18 C                    -0.269690
     19 H                     0.102725
     20 H                     0.108411
     21 H                     0.108809
     22 H                     0.199010
  ----------------------------------------
  Sum of atomic charges =     0.000000

                    Cartesian Multipole Moments
 -----------------------------------------------------------------
    Charge (ESU x 10^10)
                -0.0000
    Dipole Moment (Debye)
         X       0.4897      Y       0.1430      Z      -0.1871
       Tot       0.5434
    Quadrupole Moments (Debye-Ang)
        XX     -92.3210     XY       0.7023     YY     -69.1587
        XZ      -0.0532     YZ       3.3478     ZZ     -79.8050

 Total job time:  563.72s(wall), 557.95s(cpu)
        *  Thank you very much for using Q-Chem.  Have a nice day.  *
