 Q-Chem 5.4, Q-Chem, Inc., Pleasanton, CA (2021)
 Q-Chem 5.4.0 for Intel X86 EM64T Linux

User input:
--------------------------------------------------------------
$molecule
0 1
C	0.264439	-3.866725	0.728625
C	-0.209794	-3.703963	-0.575519
C	-0.364749	-2.357056	-1.002336
H	-0.446060	-4.561092	-1.224165
C	0.000000	-1.440664	0.000000
S	0.528253	-2.286957	1.451336
C	-0.862253	-1.978743	-2.369885
H	-1.082953	-2.878678	-2.976034
H	-0.115513	-1.376015	-2.927887
H	-1.792797	-1.375728	-2.317620
H	0.469476	-4.783437	1.292636
C	0.000000	0.000000	0.000000
C	0.000033	0.863600	1.099446
C	0.000052	2.247508	0.776721
H	0.000026	0.494801	2.136088
C	0.000074	2.468165	-0.612546
S	0.000024	0.942399	-1.486809
C	0.000075	3.335257	1.814609
H	0.000074	2.909620	2.836676
H	-0.892314	3.989552	1.726239
H	0.892483	3.989525	1.726228
H	0.000094	3.417382	-1.161575
$end

$rem
JOBTYPE		SP
EXCHANGE	HF
CORRELATION	pRIMP2
BASIS		cc-pvtz
METHOD		rimp2
AUX_BASIS	rimp2-cc-pvtz
SOLVENT_METHOD	PCM
PURECART	11111
SYMMETRY	false
MEM_TOTAL	110000
SCF_CONVERGENCE = 6
THRESH=10
$end

$solvent
dielectric 4.90
$end
--------------------------------------------------------------

             Standard Nuclear Orientation (Angstroms)
    I     Atom           X                Y                Z
 ----------------------------------------------------------------
    1      C       0.2644390000    -3.8667250000     0.7286250000
    2      C      -0.2097940000    -3.7039630000    -0.5755190000
    3      C      -0.3647490000    -2.3570560000    -1.0023360000
    4      H      -0.4460600000    -4.5610920000    -1.2241650000
    5      C       0.0000000000    -1.4406640000     0.0000000000
    6      S       0.5282530000    -2.2869570000     1.4513360000
    7      C      -0.8622530000    -1.9787430000    -2.3698850000
    8      H      -1.0829530000    -2.8786780000    -2.9760340000
    9      H      -0.1155130000    -1.3760150000    -2.9278870000
   10      H      -1.7927970000    -1.3757280000    -2.3176200000
   11      H       0.4694760000    -4.7834370000     1.2926360000
   12      C       0.0000000000     0.0000000000     0.0000000000
   13      C       0.0000330000     0.8636000000     1.0994460000
   14      C       0.0000520000     2.2475080000     0.7767210000
   15      H       0.0000260000     0.4948010000     2.1360880000
   16      C       0.0000740000     2.4681650000    -0.6125460000
   17      S       0.0000240000     0.9423990000    -1.4868090000
   18      C       0.0000750000     3.3352570000     1.8146090000
   19      H       0.0000740000     2.9096200000     2.8366760000
   20      H      -0.8923140000     3.9895520000     1.7262390000
   21      H       0.8924830000     3.9895250000     1.7262280000
   22      H       0.0000940000     3.4173820000    -1.1615750000
 ----------------------------------------------------------------

   10   -1179.6867286231      5.42e-07  Convergence criterion met
 Total energy in the final basis set =    -1179.6867286231
        RIMP2         total energy =     -1181.6667575418 a.u.

                    Orbital Energies (a.u.)
 --------------------------------------------------------------

 Alpha MOs
 -- Occupied --
-91.9852 -91.9852 -11.2840 -11.2779 -11.2730 -11.2621 -11.2542 -11.2520
-11.2436 -11.2398 -11.2303 -11.2288  -8.9851  -8.9849  -6.6660  -6.6658
 -6.6655  -6.6652  -6.6648  -6.6646  -1.1812  -1.1501  -1.0420  -1.0256
 -0.9989  -0.9526  -0.9152  -0.8948  -0.8007  -0.7647  -0.7204  -0.6958
 -0.6635  -0.6159  -0.5844  -0.5808  -0.5773  -0.5697  -0.5530  -0.5342
 -0.5244  -0.5206  -0.5109  -0.4961  -0.4902  -0.4677  -0.4523  -0.3679
 -0.3433  -0.3404  -0.2705

          Ground-State Mulliken Net Atomic Charges

     Atom                 Charge (a.u.)
  ----------------------------------------
      1 C                    -0.212372
      2 C                    -0.252766
      3 C                     0.042745
      4 H                     0.184953
      5 C                    -0.023559
      6 S                     0.011932
      7 C                    -0.315647
      8 H                     0.115231
      9 H                     0.111837
     10 H                     0.120610
     11 H                     0.206848
     12 C                     0.056021
     13 C                    -0.270425
     14 C                     0.030384
     15 H                     0.179144
     16 C                    -0.252714
     17 S                     0.020818
     18 C                    -0.271708
     19 H                     0.102941
     20 H                     0.108299
     21 H                     0.108692
     22 H                     0.198738
  ----------------------------------------
  Sum of atomic charges =     0.000000

                    Cartesian Multipole Moments
 -----------------------------------------------------------------
    Charge (ESU x 10^10)
                -0.0000
    Dipole Moment (Debye)
         X      -0.5417      Y       0.0510      Z      -0.0710
       Tot       0.5487
    Quadrupole Moments (Debye-Ang)
        XX     -91.9797     XY       0.7781     YY     -68.5183
        XZ       2.2228     YZ       3.1615     ZZ     -80.6395

 Total job time:  585.43s(wall), 581.57s(cpu)
        *  Thank you very much for using Q-Chem.  Have a nice day.  *
