 Q-Chem 5.4, Q-Chem, Inc., Pleasanton, CA (2021)
 Q-Chem 5.4.0 for Intel X86 EM64T Linux

User input:
--------------------------------------------------------------
$molecule
0 1
C	0.265779	-3.866725	-0.728138
C	-0.209225	-3.703963	0.575726
C	-0.364875	-2.357056	1.002290
H	-0.445176	-4.561092	1.224486
C	-0.000000	-1.440664	-0.000000
S	0.528236	-2.286957	-1.451343
C	-0.862808	-1.978743	2.369683
H	-1.083368	-2.878678	2.975883
H	-1.793522	-1.376015	2.317142
H	-0.116375	-1.375728	2.927787
H	0.471251	-4.783437	-1.291990
C	0.000000	0.000000	0.000000
C	0.149995	0.850475	1.099446
C	0.390327	2.213354	0.776721
H	0.085947	0.487279	2.136088
C	0.428665	2.430655	-0.612546
S	0.163670	0.928078	-1.486809
C	0.579235	3.284574	1.814609
H	0.505323	2.865404	2.836676
H	-0.185980	4.083890	1.726239
H	1.571698	3.773937	1.726228
H	0.593515	3.365448	-1.161575
$end

$rem
JOBTYPE		SP
EXCHANGE	HF
CORRELATION	pRIMP2
BASIS		cc-pvtz
METHOD		rimp2
AUX_BASIS	rimp2-cc-pvtz
SOLVENT_METHOD	PCM
PURECART	11111
SYMMETRY	false
MEM_TOTAL	110000
SCF_CONVERGENCE = 6
THRESH=10
$end

$solvent
dielectric 4.90
$end
--------------------------------------------------------------

             Standard Nuclear Orientation (Angstroms)
    I     Atom           X                Y                Z
 ----------------------------------------------------------------
    1      C       0.2657790000    -3.8667250000    -0.7281380000
    2      C      -0.2092250000    -3.7039630000     0.5757260000
    3      C      -0.3648750000    -2.3570560000     1.0022900000
    4      H      -0.4451760000    -4.5610920000     1.2244860000
    5      C       0.0000000000    -1.4406640000     0.0000000000
    6      S       0.5282360000    -2.2869570000    -1.4513430000
    7      C      -0.8628080000    -1.9787430000     2.3696830000
    8      H      -1.0833680000    -2.8786780000     2.9758830000
    9      H      -1.7935220000    -1.3760150000     2.3171420000
   10      H      -0.1163750000    -1.3757280000     2.9277870000
   11      H       0.4712510000    -4.7834370000    -1.2919900000
   12      C       0.0000000000     0.0000000000     0.0000000000
   13      C       0.1499950000     0.8504750000     1.0994460000
   14      C       0.3903270000     2.2133540000     0.7767210000
   15      H       0.0859470000     0.4872790000     2.1360880000
   16      C       0.4286650000     2.4306550000    -0.6125460000
   17      S       0.1636700000     0.9280780000    -1.4868090000
   18      C       0.5792350000     3.2845740000     1.8146090000
   19      H       0.5053230000     2.8654040000     2.8366760000
   20      H      -0.1859800000     4.0838900000     1.7262390000
   21      H       1.5716980000     3.7739370000     1.7262280000
   22      H       0.5935150000     3.3654480000    -1.1615750000
 ----------------------------------------------------------------

   10   -1179.6839150703      5.07e-07  Convergence criterion met
 Total energy in the final basis set =    -1179.6839150703
        RIMP2         total energy =     -1181.6641853073 a.u.

                    Orbital Energies (a.u.)
 --------------------------------------------------------------

 Alpha MOs
 -- Occupied --
-91.9862 -91.9852 -11.2833 -11.2784 -11.2718 -11.2646 -11.2530 -11.2525
-11.2437 -11.2409 -11.2314 -11.2295  -8.9859  -8.9851  -6.6669  -6.6663
 -6.6661  -6.6657  -6.6655  -6.6649  -1.1816  -1.1504  -1.0422  -1.0271
 -0.9961  -0.9566  -0.9141  -0.8945  -0.8035  -0.7564  -0.7278  -0.7001
 -0.6623  -0.6144  -0.5901  -0.5820  -0.5703  -0.5639  -0.5523  -0.5395
 -0.5302  -0.5230  -0.5052  -0.4908  -0.4881  -0.4771  -0.4520  -0.3683
 -0.3464  -0.3381  -0.2703

          Ground-State Mulliken Net Atomic Charges

     Atom                 Charge (a.u.)
  ----------------------------------------
      1 C                    -0.216212
      2 C                    -0.251545
      3 C                     0.062757
      4 H                     0.184159
      5 C                    -0.044125
      6 S                     0.009947
      7 C                    -0.312101
      8 H                     0.116463
      9 H                     0.117783
     10 H                     0.105937
     11 H                     0.206862
     12 C                     0.025521
     13 C                    -0.228384
     14 C                     0.017348
     15 H                     0.193847
     16 C                    -0.242168
     17 S                     0.006701
     18 C                    -0.271967
     19 H                     0.101480
     20 H                     0.108665
     21 H                     0.109018
     22 H                     0.200014
  ----------------------------------------
  Sum of atomic charges =     0.000000

                    Cartesian Multipole Moments
 -----------------------------------------------------------------
    Charge (ESU x 10^10)
                -0.0000
    Dipole Moment (Debye)
         X      -0.1741      Y       0.2156      Z       2.8325
       Tot       2.8460
    Quadrupole Moments (Debye-Ang)
        XX     -91.6475     XY       2.6328     YY     -68.7652
        XZ      -1.9655     YZ      -1.0407     ZZ     -80.8451

 Total job time:  593.63s(wall), 589.54s(cpu)
        *  Thank you very much for using Q-Chem.  Have a nice day.  *
