 Q-Chem 5.4, Q-Chem, Inc., Pleasanton, CA (2021)
 Q-Chem 5.4.0 for Intel X86 EM64T Linux

User input:
--------------------------------------------------------------
$molecule
0 1
C	-0.728138	-3.866725	-0.265779
C	0.575726	-3.703963	0.209225
C	1.002290	-2.357056	0.364875
H	1.224486	-4.561092	0.445176
C	0.000000	-1.440664	0.000000
S	-1.451343	-2.286957	-0.528236
C	2.369683	-1.978743	0.862808
H	2.975883	-2.878678	1.083368
H	2.317142	-1.376015	1.793522
H	2.927787	-1.375728	0.116375
H	-1.291990	-4.783437	-0.471251
C	0.000000	0.000000	0.000000
C	0.431829	0.747884	1.099446
C	1.123799	1.946373	0.776721
H	0.247423	0.428497	2.136088
C	1.234147	2.137457	-0.612546
S	0.471221	0.816130	-1.486809
C	1.667694	2.888380	1.814609
H	1.454874	2.519768	2.836676
H	1.222009	3.901210	1.726239
H	2.767675	3.008788	1.726228
H	1.708773	2.959493	-1.161575
$end

$rem
JOBTYPE		SP
EXCHANGE	HF
CORRELATION	pRIMP2
BASIS		cc-pvtz
METHOD		rimp2
AUX_BASIS	rimp2-cc-pvtz
SOLVENT_METHOD	PCM
PURECART	11111
SYMMETRY	false
MEM_TOTAL	110000
SCF_CONVERGENCE = 6
THRESH=10
$end

$solvent
dielectric 4.90
$end
--------------------------------------------------------------

             Standard Nuclear Orientation (Angstroms)
    I     Atom           X                Y                Z
 ----------------------------------------------------------------
    1      C      -0.7281380000    -3.8667250000    -0.2657790000
    2      C       0.5757260000    -3.7039630000     0.2092250000
    3      C       1.0022900000    -2.3570560000     0.3648750000
    4      H       1.2244860000    -4.5610920000     0.4451760000
    5      C       0.0000000000    -1.4406640000     0.0000000000
    6      S      -1.4513430000    -2.2869570000    -0.5282360000
    7      C       2.3696830000    -1.9787430000     0.8628080000
    8      H       2.9758830000    -2.8786780000     1.0833680000
    9      H       2.3171420000    -1.3760150000     1.7935220000
   10      H       2.9277870000    -1.3757280000     0.1163750000
   11      H      -1.2919900000    -4.7834370000    -0.4712510000
   12      C       0.0000000000     0.0000000000     0.0000000000
   13      C       0.4318290000     0.7478840000     1.0994460000
   14      C       1.1237990000     1.9463730000     0.7767210000
   15      H       0.2474230000     0.4284970000     2.1360880000
   16      C       1.2341470000     2.1374570000    -0.6125460000
   17      S       0.4712210000     0.8161300000    -1.4868090000
   18      C       1.6676940000     2.8883800000     1.8146090000
   19      H       1.4548740000     2.5197680000     2.8366760000
   20      H       1.2220090000     3.9012100000     1.7262390000
   21      H       2.7676750000     3.0087880000     1.7262280000
   22      H       1.7087730000     2.9594930000    -1.1615750000
 ----------------------------------------------------------------

   10   -1179.6693315768      6.00e-07  Convergence criterion met
 Total energy in the final basis set =    -1179.6693315768
        RIMP2         total energy =     -1181.6527832820 a.u.

                    Orbital Energies (a.u.)
 --------------------------------------------------------------

 Alpha MOs
 -- Occupied --
-91.9846 -91.9806 -11.2729 -11.2712 -11.2711 -11.2698 -11.2517 -11.2515
-11.2473 -11.2408 -11.2299 -11.2283  -8.9843  -8.9805  -6.6652  -6.6646
 -6.6640  -6.6614  -6.6608  -6.6603  -1.1802  -1.1488  -1.0412  -1.0217
 -0.9970  -0.9542  -0.9128  -0.8919  -0.7987  -0.7518  -0.7336  -0.6962
 -0.6600  -0.6164  -0.5834  -0.5800  -0.5716  -0.5673  -0.5510  -0.5330
 -0.5279  -0.5217  -0.5102  -0.4906  -0.4794  -0.4647  -0.4589  -0.3440
 -0.3403  -0.3285  -0.2946

          Ground-State Mulliken Net Atomic Charges

     Atom                 Charge (a.u.)
  ----------------------------------------
      1 C                    -0.213415
      2 C                    -0.252923
      3 C                     0.069888
      4 H                     0.183690
      5 C                    -0.033021
      6 S                     0.018440
      7 C                    -0.284650
      8 H                     0.111261
      9 H                     0.108841
     10 H                     0.114583
     11 H                     0.203348
     12 C                    -0.050207
     13 C                    -0.261233
     14 C                     0.046779
     15 H                     0.191847
     16 C                    -0.232767
     17 S                     0.030515
     18 C                    -0.269233
     19 H                     0.102798
     20 H                     0.108746
     21 H                     0.107361
     22 H                     0.199351
  ----------------------------------------
  Sum of atomic charges =     0.000000

                    Cartesian Multipole Moments
 -----------------------------------------------------------------
    Charge (ESU x 10^10)
                -0.0000
    Dipole Moment (Debye)
         X       2.5951      Y       0.4935      Z       2.0439
       Tot       3.3400
    Quadrupole Moments (Debye-Ang)
        XX     -84.3046     XY       2.8074     YY     -72.0164
        XZ       2.5049     YZ       0.0580     ZZ     -85.8235

 Total job time:  568.09s(wall), 565.09s(cpu)
        *  Thank you very much for using Q-Chem.  Have a nice day.  *
