 Q-Chem 5.4, Q-Chem, Inc., Pleasanton, CA (2021)
 Q-Chem 5.4.0 for Intel X86 EM64T Linux

User input:
--------------------------------------------------------------
$molecule
0 1
C	0.386946	-3.866725	0.671636
C	-0.306544	-3.703963	-0.530345
C	-0.533261	-2.357056	-0.923770
H	-0.651857	-4.561092	-1.128109
C	-0.000000	-1.440664	-0.000000
S	0.772250	-2.286957	1.337557
C	-1.260680	-1.978743	-2.184153
H	-1.583283	-2.878678	-2.742769
H	-0.622180	-1.376015	-2.863347
H	-2.168011	-1.375728	-1.971094
H	0.686807	-4.783437	1.191474
C	0.000000	0.000000	0.000000
C	0.075300	0.860311	1.099446
C	0.195935	2.238951	0.776721
H	0.043151	0.492916	2.136088
C	0.215188	2.458766	-0.612546
S	0.082160	0.938811	-1.486809
C	0.290762	3.322559	1.814609
H	0.253664	2.898542	2.836676
H	-0.541206	4.052140	1.726239
H	1.236797	3.896558	1.726228
H	0.297938	3.404370	-1.161575
$end

$rem
JOBTYPE		SP
EXCHANGE	HF
CORRELATION	pRIMP2
BASIS		cc-pvtz
METHOD		rimp2
AUX_BASIS	rimp2-cc-pvtz
SOLVENT_METHOD	PCM
PURECART	11111
SYMMETRY	false
MEM_TOTAL	110000
SCF_CONVERGENCE = 6
THRESH=10
$end

$solvent
dielectric 4.90
$end
--------------------------------------------------------------

             Standard Nuclear Orientation (Angstroms)
    I     Atom           X                Y                Z
 ----------------------------------------------------------------
    1      C       0.3869460000    -3.8667250000     0.6716360000
    2      C      -0.3065440000    -3.7039630000    -0.5303450000
    3      C      -0.5332610000    -2.3570560000    -0.9237700000
    4      H      -0.6518570000    -4.5610920000    -1.1281090000
    5      C       0.0000000000    -1.4406640000     0.0000000000
    6      S       0.7722500000    -2.2869570000     1.3375570000
    7      C      -1.2606800000    -1.9787430000    -2.1841530000
    8      H      -1.5832830000    -2.8786780000    -2.7427690000
    9      H      -0.6221800000    -1.3760150000    -2.8633470000
   10      H      -2.1680110000    -1.3757280000    -1.9710940000
   11      H       0.6868070000    -4.7834370000     1.1914740000
   12      C       0.0000000000     0.0000000000     0.0000000000
   13      C       0.0753000000     0.8603110000     1.0994460000
   14      C       0.1959350000     2.2389510000     0.7767210000
   15      H       0.0431510000     0.4929160000     2.1360880000
   16      C       0.2151880000     2.4587660000    -0.6125460000
   17      S       0.0821600000     0.9388110000    -1.4868090000
   18      C       0.2907620000     3.3225590000     1.8146090000
   19      H       0.2536640000     2.8985420000     2.8366760000
   20      H      -0.5412060000     4.0521400000     1.7262390000
   21      H       1.2367970000     3.8965580000     1.7262280000
   22      H       0.2979380000     3.4043700000    -1.1615750000
 ----------------------------------------------------------------

   10   -1179.6867864413      5.41e-07  Convergence criterion met
 Total energy in the final basis set =    -1179.6867864413
        RIMP2         total energy =     -1181.6663270511 a.u.

                    Orbital Energies (a.u.)
 --------------------------------------------------------------

 Alpha MOs
 -- Occupied --
-91.9855 -91.9852 -11.2831 -11.2769 -11.2726 -11.2631 -11.2536 -11.2519
-11.2433 -11.2405 -11.2300 -11.2289  -8.9852  -8.9849  -6.6662  -6.6658
 -6.6656  -6.6653  -6.6650  -6.6647  -1.1807  -1.1500  -1.0416  -1.0249
 -0.9989  -0.9526  -0.9151  -0.8941  -0.8007  -0.7635  -0.7216  -0.6952
 -0.6633  -0.6160  -0.5840  -0.5790  -0.5775  -0.5698  -0.5527  -0.5341
 -0.5252  -0.5201  -0.5100  -0.4959  -0.4895  -0.4679  -0.4544  -0.3631
 -0.3428  -0.3406  -0.2734

          Ground-State Mulliken Net Atomic Charges

     Atom                 Charge (a.u.)
  ----------------------------------------
      1 C                    -0.213470
      2 C                    -0.249734
      3 C                     0.034840
      4 H                     0.184706
      5 C                    -0.022705
      6 S                     0.015951
      7 C                    -0.308199
      8 H                     0.112557
      9 H                     0.112450
     10 H                     0.118916
     11 H                     0.205970
     12 C                     0.050731
     13 C                    -0.278323
     14 C                     0.034299
     15 H                     0.182509
     16 C                    -0.251670
     17 S                     0.024761
     18 C                    -0.271865
     19 H                     0.103003
     20 H                     0.108169
     21 H                     0.108867
     22 H                     0.198237
  ----------------------------------------
  Sum of atomic charges =     0.000000

                    Cartesian Multipole Moments
 -----------------------------------------------------------------
    Charge (ESU x 10^10)
                -0.0000
    Dipole Moment (Debye)
         X      -0.6107      Y       0.1202      Z       0.0774
       Tot       0.6272
    Quadrupole Moments (Debye-Ang)
        XX     -91.0043     XY       2.0527     YY     -68.6377
        XZ       3.0527     YZ       2.9468     ZZ     -81.5936

 Total job time:  553.36s(wall), 549.04s(cpu)
        *  Thank you very much for using Q-Chem.  Have a nice day.  *
