 Q-Chem 5.4, Q-Chem, Inc., Pleasanton, CA (2021)
 Q-Chem 5.4.0 for Intel X86 EM64T Linux

User input:
--------------------------------------------------------------
$molecule
0 1
C	-0.135301	-3.866725	0.763228
C	0.106073	-3.703963	-0.603311
C	0.185286	-2.357056	-1.050423
H	0.225783	-4.561092	-1.283188
C	0.000000	-1.440664	0.000000
S	-0.268187	-2.286957	1.521021
C	0.438209	-1.978743	-2.483507
H	0.550153	-2.878678	-3.118798
H	1.363906	-1.376015	-2.593381
H	-0.393798	-1.375728	-2.903516
H	-0.239740	-4.783437	1.354194
C	0.000000	0.000000	0.000000
C	0.223548	0.834165	1.099446
C	0.581748	2.170912	0.776721
H	0.128089	0.477934	2.136088
C	0.638880	2.384045	-0.612546
S	0.243934	0.910282	-1.486809
C	0.863301	3.221592	1.814609
H	0.753137	2.810458	2.836676
H	0.170663	4.084559	1.726239
H	1.894637	3.622593	1.726228
H	0.884575	3.300913	-1.161575
$end

$rem
JOBTYPE		SP
EXCHANGE	HF
CORRELATION	pRIMP2
BASIS		cc-pvtz
METHOD		rimp2
AUX_BASIS	rimp2-cc-pvtz
SOLVENT_METHOD	PCM
PURECART	11111
SYMMETRY	false
MEM_TOTAL	110000
SCF_CONVERGENCE = 6
THRESH=10
$end

$solvent
dielectric 4.90
$end
--------------------------------------------------------------

             Standard Nuclear Orientation (Angstroms)
    I     Atom           X                Y                Z
 ----------------------------------------------------------------
    1      C      -0.1353010000    -3.8667250000     0.7632280000
    2      C       0.1060730000    -3.7039630000    -0.6033110000
    3      C       0.1852860000    -2.3570560000    -1.0504230000
    4      H       0.2257830000    -4.5610920000    -1.2831880000
    5      C       0.0000000000    -1.4406640000     0.0000000000
    6      S      -0.2681870000    -2.2869570000     1.5210210000
    7      C       0.4382090000    -1.9787430000    -2.4835070000
    8      H       0.5501530000    -2.8786780000    -3.1187980000
    9      H       1.3639060000    -1.3760150000    -2.5933810000
   10      H      -0.3937980000    -1.3757280000    -2.9035160000
   11      H      -0.2397400000    -4.7834370000     1.3541940000
   12      C       0.0000000000     0.0000000000     0.0000000000
   13      C       0.2235480000     0.8341650000     1.0994460000
   14      C       0.5817480000     2.1709120000     0.7767210000
   15      H       0.1280890000     0.4779340000     2.1360880000
   16      C       0.6388800000     2.3840450000    -0.6125460000
   17      S       0.2439340000     0.9102820000    -1.4868090000
   18      C       0.8633010000     3.2215920000     1.8146090000
   19      H       0.7531370000     2.8104580000     2.8366760000
   20      H       0.1706630000     4.0845590000     1.7262390000
   21      H       1.8946370000     3.6225930000     1.7262280000
   22      H       0.8845750000     3.3009130000    -1.1615750000
 ----------------------------------------------------------------

   10   -1179.6809507925      5.13e-07  Convergence criterion met
 Total energy in the final basis set =    -1179.6809507925
        RIMP2         total energy =     -1181.6629255906 a.u.

                    Orbital Energies (a.u.)
 --------------------------------------------------------------

 Alpha MOs
 -- Occupied --
-91.9848 -91.9840 -11.2831 -11.2786 -11.2721 -11.2629 -11.2531 -11.2522
-11.2433 -11.2408 -11.2296 -11.2289  -8.9846  -8.9840  -6.6655  -6.6650
 -6.6649  -6.6644  -6.6643  -6.6638  -1.1818  -1.1498  -1.0425  -1.0255
 -0.9988  -0.9524  -0.9147  -0.8953  -0.7999  -0.7653  -0.7199  -0.6960
 -0.6629  -0.6157  -0.5845  -0.5821  -0.5774  -0.5696  -0.5529  -0.5340
 -0.5237  -0.5209  -0.5119  -0.4963  -0.4885  -0.4670  -0.4501  -0.3710
 -0.3431  -0.3398  -0.2680

          Ground-State Mulliken Net Atomic Charges

     Atom                 Charge (a.u.)
  ----------------------------------------
      1 C                    -0.213082
      2 C                    -0.251794
      3 C                     0.048184
      4 H                     0.185008
      5 C                    -0.028000
      6 S                     0.006124
      7 C                    -0.318910
      8 H                     0.116584
      9 H                     0.118977
     10 H                     0.112469
     11 H                     0.206924
     12 C                     0.052810
     13 C                    -0.261117
     14 C                     0.032412
     15 H                     0.177083
     16 C                    -0.253270
     17 S                     0.020732
     18 C                    -0.270022
     19 H                     0.102777
     20 H                     0.108492
     21 H                     0.108465
     22 H                     0.199153
  ----------------------------------------
  Sum of atomic charges =     0.000000

                    Cartesian Multipole Moments
 -----------------------------------------------------------------
    Charge (ESU x 10^10)
                -0.0000
    Dipole Moment (Debye)
         X       0.7843      Y       0.1241      Z      -0.1726
       Tot       0.8126
    Quadrupole Moments (Debye-Ang)
        XX     -91.8014     XY       2.2952     YY     -69.5919
        XZ      -0.9453     YZ       3.2561     ZZ     -80.0274

 Total job time:  561.85s(wall), 557.63s(cpu)
        *  Thank you very much for using Q-Chem.  Have a nice day.  *
