 Q-Chem 5.4, Q-Chem, Inc., Pleasanton, CA (2021)
 Q-Chem 5.4.0 for Intel X86 EM64T Linux

User input:
--------------------------------------------------------------
$molecule
0 1
C	-0.498788	-3.866725	0.593324
C	0.393517	-3.703963	-0.469446
C	0.685674	-2.357056	-0.817050
H	0.837128	-4.561092	-0.998381
C	0.000000	-1.440664	0.000000
S	-0.992768	-2.286957	1.183149
C	1.621254	-1.978743	-1.931676
H	2.035845	-2.878678	-2.425882
H	2.477868	-1.376015	-1.563980
H	1.110719	-1.375728	-2.711417
H	-0.884718	-4.783437	1.052896
C	0.000000	0.000000	0.000000
C	0.295399	0.811508	1.099446
C	0.768742	2.111949	0.776721
H	0.169256	0.464952	2.136088
C	0.844232	2.319291	-0.612546
S	0.322342	0.885558	-1.486809
C	1.140796	3.134091	1.814609
H	0.995218	2.734123	2.836676
H	0.526006	4.054142	1.726239
H	2.203157	3.443680	1.726228
H	1.168902	3.211257	-1.161575
$end

$rem
JOBTYPE		SP
EXCHANGE	HF
CORRELATION	pRIMP2
BASIS		cc-pvtz
METHOD		rimp2
AUX_BASIS	rimp2-cc-pvtz
SOLVENT_METHOD	PCM
PURECART	11111
SYMMETRY	false
MEM_TOTAL	110000
SCF_CONVERGENCE = 6
THRESH=10
$end

$solvent
dielectric 4.90
$end
--------------------------------------------------------------

             Standard Nuclear Orientation (Angstroms)
    I     Atom           X                Y                Z
 ----------------------------------------------------------------
    1      C      -0.4987880000    -3.8667250000     0.5933240000
    2      C       0.3935170000    -3.7039630000    -0.4694460000
    3      C       0.6856740000    -2.3570560000    -0.8170500000
    4      H       0.8371280000    -4.5610920000    -0.9983810000
    5      C       0.0000000000    -1.4406640000     0.0000000000
    6      S      -0.9927680000    -2.2869570000     1.1831490000
    7      C       1.6212540000    -1.9787430000    -1.9316760000
    8      H       2.0358450000    -2.8786780000    -2.4258820000
    9      H       2.4778680000    -1.3760150000    -1.5639800000
   10      H       1.1107190000    -1.3757280000    -2.7114170000
   11      H      -0.8847180000    -4.7834370000     1.0528960000
   12      C       0.0000000000     0.0000000000     0.0000000000
   13      C       0.2953990000     0.8115080000     1.0994460000
   14      C       0.7687420000     2.1119490000     0.7767210000
   15      H       0.1692560000     0.4649520000     2.1360880000
   16      C       0.8442320000     2.3192910000    -0.6125460000
   17      S       0.3223420000     0.8855580000    -1.4868090000
   18      C       1.1407960000     3.1340910000     1.8146090000
   19      H       0.9952180000     2.7341230000     2.8366760000
   20      H       0.5260060000     4.0541420000     1.7262390000
   21      H       2.2031570000     3.4436800000     1.7262280000
   22      H       1.1689020000     3.2112570000    -1.1615750000
 ----------------------------------------------------------------

   10   -1179.6759031262      5.06e-07  Convergence criterion met
 Total energy in the final basis set =    -1179.6759031262
        RIMP2         total energy =     -1181.6583210617 a.u.

                    Orbital Energies (a.u.)
 --------------------------------------------------------------

 Alpha MOs
 -- Occupied --
-91.9843 -91.9834 -11.2795 -11.2768 -11.2699 -11.2665 -11.2516 -11.2507
-11.2440 -11.2421 -11.2292 -11.2271  -8.9842  -8.9832  -6.6651  -6.6645
 -6.6641  -6.6639  -6.6636  -6.6629  -1.1808  -1.1493  -1.0419  -1.0226
 -0.9985  -0.9530  -0.9132  -0.8937  -0.7991  -0.7615  -0.7239  -0.6955
 -0.6611  -0.6161  -0.5829  -0.5782  -0.5767  -0.5697  -0.5516  -0.5329
 -0.5268  -0.5197  -0.5113  -0.4947  -0.4833  -0.4659  -0.4542  -0.3603
 -0.3415  -0.3370  -0.2757

          Ground-State Mulliken Net Atomic Charges

     Atom                 Charge (a.u.)
  ----------------------------------------
      1 C                    -0.216445
      2 C                    -0.251324
      3 C                     0.044963
      4 H                     0.184442
      5 C                    -0.030239
      6 S                     0.015738
      7 C                    -0.298895
      8 H                     0.109101
      9 H                     0.119037
     10 H                     0.112027
     11 H                     0.204588
     12 C                    -0.004240
     13 C                    -0.226999
     14 C                     0.015919
     15 H                     0.186295
     16 C                    -0.230322
     17 S                     0.018744
     18 C                    -0.269964
     19 H                     0.102983
     20 H                     0.108251
     21 H                     0.107717
     22 H                     0.198624
  ----------------------------------------
  Sum of atomic charges =     0.000000

                    Cartesian Multipole Moments
 -----------------------------------------------------------------
    Charge (ESU x 10^10)
                -0.0000
    Dipole Moment (Debye)
         X       1.7081      Y       0.4231      Z       0.2126
       Tot       1.7725
    Quadrupole Moments (Debye-Ang)
        XX     -88.7706     XY       2.2074     YY     -70.8070
        XZ      -2.9294     YZ       2.5600     ZZ     -82.6570

 Total job time:  556.58s(wall), 553.76s(cpu)
        *  Thank you very much for using Q-Chem.  Have a nice day.  *
