 Q-Chem 5.4, Q-Chem, Inc., Pleasanton, CA (2021)
 Q-Chem 5.4.0 for Intel X86 EM64T Linux

User input:
--------------------------------------------------------------
$molecule
0 1
C	-0.264439	-3.866725	-0.728625
C	0.209794	-3.703963	0.575519
C	0.364749	-2.357056	1.002336
H	0.446060	-4.561092	1.224165
C	-0.000000	-1.440664	-0.000000
S	-0.528253	-2.286957	-1.451336
C	0.862253	-1.978743	2.369885
H	1.082953	-2.878678	2.976034
H	0.115513	-1.376015	2.927887
H	1.792797	-1.375728	2.317620
H	-0.469476	-4.783437	-1.292636
C	0.000000	0.000000	0.000000
C	0.365003	0.782674	1.099446
C	0.949885	2.036912	0.776721
H	0.209135	0.448431	2.136088
C	1.043159	2.236886	-0.612546
S	0.398297	0.854094	-1.486809
C	1.409609	3.022738	1.814609
H	1.229726	2.636980	2.836676
H	0.877346	3.992870	1.726239
H	2.494910	3.238558	1.726228
H	1.444334	3.097160	-1.161575
$end

$rem
JOBTYPE		SP
EXCHANGE	HF
CORRELATION	pRIMP2
BASIS		cc-pvtz
METHOD		rimp2
AUX_BASIS	rimp2-cc-pvtz
SOLVENT_METHOD	PCM
PURECART	11111
SYMMETRY	false
MEM_TOTAL	110000
SCF_CONVERGENCE = 6
THRESH=10
$end

$solvent
dielectric 4.90
$end
--------------------------------------------------------------

             Standard Nuclear Orientation (Angstroms)
    I     Atom           X                Y                Z
 ----------------------------------------------------------------
    1      C      -0.2644390000    -3.8667250000    -0.7286250000
    2      C       0.2097940000    -3.7039630000     0.5755190000
    3      C       0.3647490000    -2.3570560000     1.0023360000
    4      H       0.4460600000    -4.5610920000     1.2241650000
    5      C       0.0000000000    -1.4406640000     0.0000000000
    6      S      -0.5282530000    -2.2869570000    -1.4513360000
    7      C       0.8622530000    -1.9787430000     2.3698850000
    8      H       1.0829530000    -2.8786780000     2.9760340000
    9      H       0.1155130000    -1.3760150000     2.9278870000
   10      H       1.7927970000    -1.3757280000     2.3176200000
   11      H      -0.4694760000    -4.7834370000    -1.2926360000
   12      C       0.0000000000     0.0000000000     0.0000000000
   13      C       0.3650030000     0.7826740000     1.0994460000
   14      C       0.9498850000     2.0369120000     0.7767210000
   15      H       0.2091350000     0.4484310000     2.1360880000
   16      C       1.0431590000     2.2368860000    -0.6125460000
   17      S       0.3982970000     0.8540940000    -1.4868090000
   18      C       1.4096090000     3.0227380000     1.8146090000
   19      H       1.2297260000     2.6369800000     2.8366760000
   20      H       0.8773460000     3.9928700000     1.7262390000
   21      H       2.4949100000     3.2385580000     1.7262280000
   22      H       1.4443340000     3.0971600000    -1.1615750000
 ----------------------------------------------------------------

   10   -1179.6725872952      4.98e-07  Convergence criterion met
 Total energy in the final basis set =    -1179.6725872952
        RIMP2         total energy =     -1181.6560558152 a.u.

                    Orbital Energies (a.u.)
 --------------------------------------------------------------

 Alpha MOs
 -- Occupied --
-91.9849 -91.9824 -11.2789 -11.2777 -11.2706 -11.2682 -11.2525 -11.2516
-11.2433 -11.2428 -11.2306 -11.2298  -8.9849  -8.9825  -6.6658  -6.6652
 -6.6646  -6.6635  -6.6629  -6.6623  -1.1823  -1.1497  -1.0425  -1.0266
 -0.9958  -0.9557  -0.9141  -0.8943  -0.8016  -0.7563  -0.7283  -0.7011
 -0.6605  -0.6144  -0.5914  -0.5818  -0.5707  -0.5630  -0.5515  -0.5400
 -0.5287  -0.5238  -0.5052  -0.4914  -0.4831  -0.4745  -0.4519  -0.3663
 -0.3467  -0.3376  -0.2695

          Ground-State Mulliken Net Atomic Charges

     Atom                 Charge (a.u.)
  ----------------------------------------
      1 C                    -0.216737
      2 C                    -0.248768
      3 C                     0.060697
      4 H                     0.184374
      5 C                    -0.035697
      6 S                     0.008765
      7 C                    -0.310953
      8 H                     0.116640
      9 H                     0.105709
     10 H                     0.117130
     11 H                     0.206101
     12 C                     0.029181
     13 C                    -0.288899
     14 C                     0.051526
     15 H                     0.196819
     16 C                    -0.249892
     17 S                     0.024644
     18 C                    -0.269379
     19 H                     0.101991
     20 H                     0.108888
     21 H                     0.108754
     22 H                     0.199107
  ----------------------------------------
  Sum of atomic charges =     0.000000

                    Cartesian Multipole Moments
 -----------------------------------------------------------------
    Charge (ESU x 10^10)
                -0.0000
    Dipole Moment (Debye)
         X       1.4228      Y       0.3626      Z       2.9251
       Tot       3.2729
    Quadrupole Moments (Debye-Ang)
        XX     -89.9161     XY       3.5662     YY     -70.8292
        XZ       2.5285     YZ      -1.1990     ZZ     -80.9150

 Total job time:  609.95s(wall), 606.10s(cpu)
        *  Thank you very much for using Q-Chem.  Have a nice day.  *
