 Q-Chem 5.4, Q-Chem, Inc., Pleasanton, CA (2021)
 Q-Chem 5.4.0 for Intel X86 EM64T Linux

User input:
--------------------------------------------------------------
$molecule
0 1
C	-0.728625	-3.866725	0.264439
C	0.575519	-3.703963	-0.209794
C	1.002336	-2.357056	-0.364749
H	1.224165	-4.561092	-0.446060
C	0.000000	-1.440664	0.000000
S	-1.451336	-2.286957	0.528253
C	2.369885	-1.978743	-0.862253
H	2.976034	-2.878678	-1.082953
H	2.927887	-1.376015	-0.115513
H	2.317620	-1.375728	-1.792797
H	-1.292636	-4.783437	0.469476
C	0.000000	0.000000	0.000000
C	0.747916	0.431772	1.099446
C	1.946425	1.123709	0.776721
H	0.428523	0.247378	2.136088
C	2.137531	1.234018	-0.612546
S	0.816154	0.471179	-1.486809
C	2.888455	1.667564	1.814609
H	2.519842	1.454746	2.836676
H	3.008896	2.767543	1.726239
H	3.901271	1.221850	1.726228
H	2.959587	1.708609	-1.161575
$end

$rem
JOBTYPE		SP
EXCHANGE	HF
CORRELATION	pRIMP2
BASIS		cc-pvtz
METHOD		rimp2
AUX_BASIS	rimp2-cc-pvtz
SOLVENT_METHOD	PCM
PURECART	11111
SYMMETRY	false
MEM_TOTAL	110000
SCF_CONVERGENCE = 6
THRESH=10
$end

$solvent
dielectric 4.90
$end
--------------------------------------------------------------

             Standard Nuclear Orientation (Angstroms)
    I     Atom           X                Y                Z
 ----------------------------------------------------------------
    1      C      -0.7286250000    -3.8667250000     0.2644390000
    2      C       0.5755190000    -3.7039630000    -0.2097940000
    3      C       1.0023360000    -2.3570560000    -0.3647490000
    4      H       1.2241650000    -4.5610920000    -0.4460600000
    5      C       0.0000000000    -1.4406640000     0.0000000000
    6      S      -1.4513360000    -2.2869570000     0.5282530000
    7      C       2.3698850000    -1.9787430000    -0.8622530000
    8      H       2.9760340000    -2.8786780000    -1.0829530000
    9      H       2.9278870000    -1.3760150000    -0.1155130000
   10      H       2.3176200000    -1.3757280000    -1.7927970000
   11      H      -1.2926360000    -4.7834370000     0.4694760000
   12      C       0.0000000000     0.0000000000     0.0000000000
   13      C       0.7479160000     0.4317720000     1.0994460000
   14      C       1.9464250000     1.1237090000     0.7767210000
   15      H       0.4285230000     0.2473780000     2.1360880000
   16      C       2.1375310000     1.2340180000    -0.6125460000
   17      S       0.8161540000     0.4711790000    -1.4868090000
   18      C       2.8884550000     1.6675640000     1.8146090000
   19      H       2.5198420000     1.4547460000     2.8366760000
   20      H       3.0088960000     2.7675430000     1.7262390000
   21      H       3.9012710000     1.2218500000     1.7262280000
   22      H       2.9595870000     1.7086090000    -1.1615750000
 ----------------------------------------------------------------

   11   -1179.6041302620      4.99e-07  Convergence criterion met
 Total energy in the final basis set =    -1179.6041302620
        RIMP2         total energy =     -1181.6048831142 a.u.

                    Orbital Energies (a.u.)
 --------------------------------------------------------------

 Alpha MOs
 -- Occupied --
-91.9817 -91.9731 -11.2894 -11.2760 -11.2676 -11.2587 -11.2541 -11.2512
-11.2378 -11.2364 -11.2320 -11.2191  -8.9826  -8.9733  -6.6633  -6.6625
 -6.6623  -6.6542  -6.6536  -6.6531  -1.1921  -1.1444  -1.0468  -1.0169
 -1.0010  -0.9521  -0.9121  -0.8892  -0.7947  -0.7558  -0.7365  -0.6941
 -0.6544  -0.6214  -0.5870  -0.5832  -0.5744  -0.5657  -0.5481  -0.5386
 -0.5247  -0.5225  -0.5125  -0.4886  -0.4659  -0.4615  -0.4386  -0.3551
 -0.3356  -0.3230  -0.2834

          Ground-State Mulliken Net Atomic Charges

     Atom                 Charge (a.u.)
  ----------------------------------------
      1 C                    -0.229546
      2 C                    -0.258864
      3 C                     0.034742
      4 H                     0.181990
      5 C                     0.012019
      6 S                    -0.009846
      7 C                    -0.325912
      8 H                     0.114003
      9 H                     0.116639
     10 H                     0.119897
     11 H                     0.198630
     12 C                    -0.158420
     13 C                    -0.093480
     14 C                    -0.034581
     15 H                     0.192141
     16 C                    -0.150430
     17 S                     0.037853
     18 C                    -0.267493
     19 H                     0.104130
     20 H                     0.110677
     21 H                     0.104979
     22 H                     0.200873
  ----------------------------------------
  Sum of atomic charges =     0.000000

                    Cartesian Multipole Moments
 -----------------------------------------------------------------
    Charge (ESU x 10^10)
                -0.0000
    Dipole Moment (Debye)
         X       4.4302      Y       1.0592      Z       1.0505
       Tot       4.6746
    Quadrupole Moments (Debye-Ang)
        XX     -78.0670     XY       3.5490     YY     -81.4824
        XZ      -1.4524     YZ       1.5042     ZZ     -84.7799

 Total job time:  669.56s(wall), 665.49s(cpu)
        *  Thank you very much for using Q-Chem.  Have a nice day.  *
