 Q-Chem 5.4, Q-Chem, Inc., Pleasanton, CA (2021)
 Q-Chem 5.4.0 for Intel X86 EM64T Linux

User input:
--------------------------------------------------------------
$molecule
0 1
C	0.594240	-3.866725	-0.497696
C	-0.469057	-3.703963	0.393981
C	-0.817136	-2.357056	0.685571
H	-0.997777	-4.561092	0.837848
C	0.000000	-1.440664	0.000000
S	1.183137	-2.286957	-0.992782
C	-1.932056	-1.978743	1.620802
H	-2.426166	-2.878678	2.035506
H	-2.711806	-1.376015	1.109943
H	-1.564678	-1.375728	2.477350
H	1.054110	-4.783437	-0.883271
C	0.000000	0.000000	0.000000
C	0.295399	0.811508	1.099446
C	0.768742	2.111949	0.776721
H	0.169256	0.464952	2.136088
C	0.844232	2.319291	-0.612546
S	0.322342	0.885558	-1.486809
C	1.140796	3.134091	1.814609
H	0.995218	2.734123	2.836676
H	0.526006	4.054142	1.726239
H	2.203157	3.443680	1.726228
H	1.168902	3.211257	-1.161575
$end

$rem
JOBTYPE		SP
EXCHANGE	HF
CORRELATION	pRIMP2
BASIS		cc-pvtz
METHOD		rimp2
AUX_BASIS	rimp2-cc-pvtz
SOLVENT_METHOD	PCM
PURECART	11111
SYMMETRY	false
MEM_TOTAL	110000
SCF_CONVERGENCE = 6
THRESH=10
$end

$solvent
dielectric 4.90
$end
--------------------------------------------------------------

             Standard Nuclear Orientation (Angstroms)
    I     Atom           X                Y                Z
 ----------------------------------------------------------------
    1      C       0.5942400000    -3.8667250000    -0.4976960000
    2      C      -0.4690570000    -3.7039630000     0.3939810000
    3      C      -0.8171360000    -2.3570560000     0.6855710000
    4      H      -0.9977770000    -4.5610920000     0.8378480000
    5      C       0.0000000000    -1.4406640000     0.0000000000
    6      S       1.1831370000    -2.2869570000    -0.9927820000
    7      C      -1.9320560000    -1.9787430000     1.6208020000
    8      H      -2.4261660000    -2.8786780000     2.0355060000
    9      H      -2.7118060000    -1.3760150000     1.1099430000
   10      H      -1.5646780000    -1.3757280000     2.4773500000
   11      H       1.0541100000    -4.7834370000    -0.8832710000
   12      C       0.0000000000     0.0000000000     0.0000000000
   13      C       0.2953990000     0.8115080000     1.0994460000
   14      C       0.7687420000     2.1119490000     0.7767210000
   15      H       0.1692560000     0.4649520000     2.1360880000
   16      C       0.8442320000     2.3192910000    -0.6125460000
   17      S       0.3223420000     0.8855580000    -1.4868090000
   18      C       1.1407960000     3.1340910000     1.8146090000
   19      H       0.9952180000     2.7341230000     2.8366760000
   20      H       0.5260060000     4.0541420000     1.7262390000
   21      H       2.2031570000     3.4436800000     1.7262280000
   22      H       1.1689020000     3.2112570000    -1.1615750000
 ----------------------------------------------------------------

   10   -1179.6788867669      4.99e-07  Convergence criterion met
 Total energy in the final basis set =    -1179.6788867669
        RIMP2         total energy =     -1181.6592345264 a.u.

                    Orbital Energies (a.u.)
 --------------------------------------------------------------

 Alpha MOs
 -- Occupied --
-91.9863 -91.9844 -11.2789 -11.2754 -11.2695 -11.2670 -11.2523 -11.2500
-11.2443 -11.2417 -11.2295 -11.2292  -8.9859  -8.9841  -6.6668  -6.6663
 -6.6657  -6.6649  -6.6644  -6.6637  -1.1806  -1.1495  -1.0416  -1.0236
 -0.9964  -0.9557  -0.9122  -0.8932  -0.8020  -0.7527  -0.7313  -0.6963
 -0.6612  -0.6156  -0.5854  -0.5799  -0.5698  -0.5664  -0.5521  -0.5351
 -0.5302  -0.5203  -0.5077  -0.4910  -0.4841  -0.4717  -0.4577  -0.3561
 -0.3409  -0.3357  -0.2809

          Ground-State Mulliken Net Atomic Charges

     Atom                 Charge (a.u.)
  ----------------------------------------
      1 C                    -0.217821
      2 C                    -0.248824
      3 C                     0.038615
      4 H                     0.183423
      5 C                    -0.034385
      6 S                     0.023318
      7 C                    -0.287302
      8 H                     0.108553
      9 H                     0.111156
     10 H                     0.107018
     11 H                     0.204359
     12 C                    -0.011461
     13 C                    -0.214839
     14 C                     0.014116
     15 H                     0.192323
     16 C                    -0.228113
     17 S                     0.013927
     18 C                    -0.271588
     19 H                     0.102295
     20 H                     0.108206
     21 H                     0.108404
     22 H                     0.198619
  ----------------------------------------
  Sum of atomic charges =     0.000000

                    Cartesian Multipole Moments
 -----------------------------------------------------------------
    Charge (ESU x 10^10)
                -0.0000
    Dipole Moment (Debye)
         X      -0.4047      Y       0.4549      Z       2.4076
       Tot       2.4834
    Quadrupole Moments (Debye-Ang)
        XX     -87.6375     XY       5.1745     YY     -70.4729
        XZ      -2.8178     YZ      -0.4581     ZZ     -83.9060

 Total job time:  546.70s(wall), 543.31s(cpu)
        *  Thank you very much for using Q-Chem.  Have a nice day.  *
