 Q-Chem 5.4, Q-Chem, Inc., Pleasanton, CA (2021)
 Q-Chem 5.4.0 for Intel X86 EM64T Linux

User input:
--------------------------------------------------------------
$molecule
0 1
C	-0.498788	-3.866725	0.593324
C	0.393517	-3.703963	-0.469446
C	0.685674	-2.357056	-0.817050
H	0.837128	-4.561092	-0.998381
C	0.000000	-1.440664	0.000000
S	-0.992768	-2.286957	1.183149
C	1.621254	-1.978743	-1.931676
H	2.035845	-2.878678	-2.425882
H	2.477868	-1.376015	-1.563980
H	1.110719	-1.375728	-2.711417
H	-0.884718	-4.783437	1.052896
C	0.000000	0.000000	0.000000
C	0.747916	0.431772	1.099446
C	1.946425	1.123709	0.776721
H	0.428523	0.247378	2.136088
C	2.137531	1.234018	-0.612546
S	0.816154	0.471179	-1.486809
C	2.888455	1.667564	1.814609
H	2.519842	1.454746	2.836676
H	3.008896	2.767543	1.726239
H	3.901271	1.221850	1.726228
H	2.959587	1.708609	-1.161575
$end

$rem
JOBTYPE		SP
EXCHANGE	HF
CORRELATION	pRIMP2
BASIS		cc-pvtz
METHOD		rimp2
AUX_BASIS	rimp2-cc-pvtz
SOLVENT_METHOD	PCM
PURECART	11111
SYMMETRY	false
MEM_TOTAL	110000
SCF_CONVERGENCE = 6
THRESH=10
$end

$solvent
dielectric 4.90
$end
--------------------------------------------------------------

             Standard Nuclear Orientation (Angstroms)
    I     Atom           X                Y                Z
 ----------------------------------------------------------------
    1      C      -0.4987880000    -3.8667250000     0.5933240000
    2      C       0.3935170000    -3.7039630000    -0.4694460000
    3      C       0.6856740000    -2.3570560000    -0.8170500000
    4      H       0.8371280000    -4.5610920000    -0.9983810000
    5      C       0.0000000000    -1.4406640000     0.0000000000
    6      S      -0.9927680000    -2.2869570000     1.1831490000
    7      C       1.6212540000    -1.9787430000    -1.9316760000
    8      H       2.0358450000    -2.8786780000    -2.4258820000
    9      H       2.4778680000    -1.3760150000    -1.5639800000
   10      H       1.1107190000    -1.3757280000    -2.7114170000
   11      H      -0.8847180000    -4.7834370000     1.0528960000
   12      C       0.0000000000     0.0000000000     0.0000000000
   13      C       0.7479160000     0.4317720000     1.0994460000
   14      C       1.9464250000     1.1237090000     0.7767210000
   15      H       0.4285230000     0.2473780000     2.1360880000
   16      C       2.1375310000     1.2340180000    -0.6125460000
   17      S       0.8161540000     0.4711790000    -1.4868090000
   18      C       2.8884550000     1.6675640000     1.8146090000
   19      H       2.5198420000     1.4547460000     2.8366760000
   20      H       3.0088960000     2.7675430000     1.7262390000
   21      H       3.9012710000     1.2218500000     1.7262280000
   22      H       2.9595870000     1.7086090000    -1.1615750000
 ----------------------------------------------------------------

   11   -1179.5843952465      5.66e-07  Convergence criterion met
 Total energy in the final basis set =    -1179.5843952465
        RIMP2         total energy =     -1181.5882092692 a.u.

                    Orbital Energies (a.u.)
 --------------------------------------------------------------

 Alpha MOs
 -- Occupied --
-91.9794 -91.9728 -11.2894 -11.2806 -11.2650 -11.2566 -11.2550 -11.2543
-11.2372 -11.2341 -11.2316 -11.2190  -8.9815  -8.9733  -6.6618  -6.6612
 -6.6609  -6.6543  -6.6537  -6.6530  -1.1936  -1.1441  -1.0481  -1.0238
 -0.9976  -0.9510  -0.9096  -0.8952  -0.7931  -0.7628  -0.7297  -0.6951
 -0.6541  -0.6217  -0.5904  -0.5837  -0.5762  -0.5681  -0.5491  -0.5400
 -0.5248  -0.5215  -0.5113  -0.4945  -0.4653  -0.4500  -0.4421  -0.3622
 -0.3366  -0.3276  -0.2672

          Ground-State Mulliken Net Atomic Charges

     Atom                 Charge (a.u.)
  ----------------------------------------
      1 C                    -0.236317
      2 C                    -0.256043
      3 C                    -0.004916
      4 H                     0.182566
      5 C                     0.019207
      6 S                    -0.019822
      7 C                    -0.270413
      8 H                     0.098199
      9 H                     0.108174
     10 H                     0.109470
     11 H                     0.199406
     12 C                    -0.133447
     13 C                    -0.093827
     14 C                    -0.022835
     15 H                     0.193140
     16 C                    -0.183944
     17 S                     0.056756
     18 C                    -0.265640
     19 H                     0.103859
     20 H                     0.107266
     21 H                     0.105483
     22 H                     0.203677
  ----------------------------------------
  Sum of atomic charges =     0.000000

                    Cartesian Multipole Moments
 -----------------------------------------------------------------
    Charge (ESU x 10^10)
                -0.0000
    Dipole Moment (Debye)
         X       3.9873      Y       1.2335      Z       0.1533
       Tot       4.1766
    Quadrupole Moments (Debye-Ang)
        XX     -80.5648     XY       4.2256     YY     -82.5160
        XZ      -2.5155     YZ       2.2775     ZZ     -81.8930

 Total job time:  656.57s(wall), 651.78s(cpu)
        *  Thank you very much for using Q-Chem.  Have a nice day.  *
