 Q-Chem 5.4, Q-Chem, Inc., Pleasanton, CA (2021)
 Q-Chem 5.4.0 for Intel X86 EM64T Linux

User input:
--------------------------------------------------------------
$molecule
0 1
C	0.388181	-3.866725	-0.670924
C	-0.306020	-3.703963	0.530648
C	-0.533378	-2.357056	0.923703
H	-0.651043	-4.561092	1.128579
C	-0.000000	-1.440664	-0.000000
S	0.772234	-2.286957	-1.337567
C	-1.261192	-1.978743	2.183857
H	-1.583666	-2.878678	2.742548
H	-2.168641	-1.376015	1.970497
H	-0.623012	-1.375728	2.863099
H	0.688443	-4.783437	-1.190530
C	0.000000	0.000000	0.000000
C	0.555137	0.661535	1.099446
C	1.444710	1.721658	0.776721
H	0.318072	0.379023	2.136088
C	1.586563	1.890676	-0.612546
S	0.605781	0.721904	-1.486809
C	2.143920	2.554907	1.814609
H	1.870325	2.228851	2.836676
H	1.880882	3.629742	1.726239
H	3.248098	2.482476	1.726228
H	2.196723	2.617806	-1.161575
$end

$rem
JOBTYPE		SP
EXCHANGE	HF
CORRELATION	pRIMP2
BASIS		cc-pvtz
METHOD		rimp2
AUX_BASIS	rimp2-cc-pvtz
SOLVENT_METHOD	PCM
PURECART	11111
SYMMETRY	false
MEM_TOTAL	110000
SCF_CONVERGENCE = 6
THRESH=10
$end

$solvent
dielectric 4.90
$end
--------------------------------------------------------------

             Standard Nuclear Orientation (Angstroms)
    I     Atom           X                Y                Z
 ----------------------------------------------------------------
    1      C       0.3881810000    -3.8667250000    -0.6709240000
    2      C      -0.3060200000    -3.7039630000     0.5306480000
    3      C      -0.5333780000    -2.3570560000     0.9237030000
    4      H      -0.6510430000    -4.5610920000     1.1285790000
    5      C       0.0000000000    -1.4406640000     0.0000000000
    6      S       0.7722340000    -2.2869570000    -1.3375670000
    7      C      -1.2611920000    -1.9787430000     2.1838570000
    8      H      -1.5836660000    -2.8786780000     2.7425480000
    9      H      -2.1686410000    -1.3760150000     1.9704970000
   10      H      -0.6230120000    -1.3757280000     2.8630990000
   11      H       0.6884430000    -4.7834370000    -1.1905300000
   12      C       0.0000000000     0.0000000000     0.0000000000
   13      C       0.5551370000     0.6615350000     1.0994460000
   14      C       1.4447100000     1.7216580000     0.7767210000
   15      H       0.3180720000     0.3790230000     2.1360880000
   16      C       1.5865630000     1.8906760000    -0.6125460000
   17      S       0.6057810000     0.7219040000    -1.4868090000
   18      C       2.1439200000     2.5549070000     1.8146090000
   19      H       1.8703250000     2.2288510000     2.8366760000
   20      H       1.8808820000     3.6297420000     1.7262390000
   21      H       3.2480980000     2.4824760000     1.7262280000
   22      H       2.1967230000     2.6178060000    -1.1615750000
 ----------------------------------------------------------------

   10   -1179.6531888862      7.04e-07  Convergence criterion met
 Total energy in the final basis set =    -1179.6531888862
        RIMP2         total energy =     -1181.6408573981 a.u.

                    Orbital Energies (a.u.)
 --------------------------------------------------------------

 Alpha MOs
 -- Occupied --
-91.9862 -91.9809 -11.2779 -11.2773 -11.2730 -11.2607 -11.2551 -11.2537
-11.2408 -11.2393 -11.2309 -11.2280  -8.9864  -8.9807  -6.6672  -6.6666
 -6.6661  -6.6616  -6.6610  -6.6603  -1.1857  -1.1479  -1.0449  -1.0225
 -0.9968  -0.9562  -0.9105  -0.8937  -0.8019  -0.7537  -0.7312  -0.6981
 -0.6576  -0.6160  -0.5911  -0.5810  -0.5701  -0.5631  -0.5512  -0.5394
 -0.5322  -0.5194  -0.5073  -0.4894  -0.4824  -0.4708  -0.4498  -0.3673
 -0.3417  -0.3363  -0.2682

          Ground-State Mulliken Net Atomic Charges

     Atom                 Charge (a.u.)
  ----------------------------------------
      1 C                    -0.245020
      2 C                    -0.241388
      3 C                     0.018067
      4 H                     0.181623
      5 C                    -0.001721
      6 S                     0.015269
      7 C                    -0.301725
      8 H                     0.111164
      9 H                     0.111666
     10 H                     0.100634
     11 H                     0.202601
     12 C                    -0.041124
     13 C                    -0.171095
     14 C                     0.002997
     15 H                     0.196629
     16 C                    -0.204379
     17 S                     0.013745
     18 C                    -0.268817
     19 H                     0.102056
     20 H                     0.108729
     21 H                     0.107970
     22 H                     0.202118
  ----------------------------------------
  Sum of atomic charges =     0.000000

                    Cartesian Multipole Moments
 -----------------------------------------------------------------
    Charge (ESU x 10^10)
                -0.0000
    Dipole Moment (Debye)
         X       1.0213      Y       1.1257      Z       2.7174
       Tot       3.1136
    Quadrupole Moments (Debye-Ang)
        XX     -86.1181     XY       7.0728     YY     -75.6727
        XZ      -2.0956     YZ      -1.2479     ZZ     -81.6252

 Total job time:  570.71s(wall), 566.99s(cpu)
        *  Thank you very much for using Q-Chem.  Have a nice day.  *
