 Q-Chem 5.4, Q-Chem, Inc., Pleasanton, CA (2021)
 Q-Chem 5.4.0 for Intel X86 EM64T Linux

User input:
--------------------------------------------------------------
$molecule
0 1
C	0.670924	-3.866725	0.388181
C	-0.530648	-3.703963	-0.306020
C	-0.923703	-2.357056	-0.533378
H	-1.128579	-4.561092	-0.651043
C	0.000000	-1.440664	0.000000
S	1.337567	-2.286957	0.772234
C	-2.183857	-1.978743	-1.261192
H	-2.742548	-2.878678	-1.583666
H	-1.970497	-1.376015	-2.168641
H	-2.863099	-1.375728	-0.623012
H	1.190530	-4.783437	0.688443
C	0.000000	0.000000	0.000000
C	0.661577	0.555087	1.099446
C	1.721724	1.444630	0.776721
H	0.379056	0.318032	2.136088
C	1.890772	1.586449	-0.612546
S	0.721935	0.605744	-1.486809
C	2.555004	2.143805	1.814609
H	2.228946	1.870211	2.836676
H	2.482605	3.247987	1.726239
H	3.629830	1.880735	1.726228
H	2.617927	2.196579	-1.161575
$end

$rem
JOBTYPE		SP
EXCHANGE	HF
CORRELATION	pRIMP2
BASIS		cc-pvtz
METHOD		rimp2
AUX_BASIS	rimp2-cc-pvtz
SOLVENT_METHOD	PCM
PURECART	11111
SYMMETRY	false
MEM_TOTAL	110000
SCF_CONVERGENCE = 6
THRESH=10
$end

$solvent
dielectric 4.90
$end
--------------------------------------------------------------

             Standard Nuclear Orientation (Angstroms)
    I     Atom           X                Y                Z
 ----------------------------------------------------------------
    1      C       0.6709240000    -3.8667250000     0.3881810000
    2      C      -0.5306480000    -3.7039630000    -0.3060200000
    3      C      -0.9237030000    -2.3570560000    -0.5333780000
    4      H      -1.1285790000    -4.5610920000    -0.6510430000
    5      C       0.0000000000    -1.4406640000     0.0000000000
    6      S       1.3375670000    -2.2869570000     0.7722340000
    7      C      -2.1838570000    -1.9787430000    -1.2611920000
    8      H      -2.7425480000    -2.8786780000    -1.5836660000
    9      H      -1.9704970000    -1.3760150000    -2.1686410000
   10      H      -2.8630990000    -1.3757280000    -0.6230120000
   11      H       1.1905300000    -4.7834370000     0.6884430000
   12      C       0.0000000000     0.0000000000     0.0000000000
   13      C       0.6615770000     0.5550870000     1.0994460000
   14      C       1.7217240000     1.4446300000     0.7767210000
   15      H       0.3790560000     0.3180320000     2.1360880000
   16      C       1.8907720000     1.5864490000    -0.6125460000
   17      S       0.7219350000     0.6057440000    -1.4868090000
   18      C       2.5550040000     2.1438050000     1.8146090000
   19      H       2.2289460000     1.8702110000     2.8366760000
   20      H       2.4826050000     3.2479870000     1.7262390000
   21      H       3.6298300000     1.8807350000     1.7262280000
   22      H       2.6179270000     2.1965790000    -1.1615750000
 ----------------------------------------------------------------

   10   -1179.6401507493      6.27e-07  Convergence criterion met
 Total energy in the final basis set =    -1179.6401507493
        RIMP2         total energy =     -1181.6298998448 a.u.

                    Orbital Energies (a.u.)
 --------------------------------------------------------------

 Alpha MOs
 -- Occupied --
-91.9842 -91.9795 -11.2831 -11.2712 -11.2643 -11.2605 -11.2563 -11.2538
-11.2412 -11.2379 -11.2306 -11.2263  -8.9844  -8.9794  -6.6652  -6.6644
 -6.6640  -6.6602  -6.6596  -6.6590  -1.1867  -1.1467  -1.0441  -1.0192
 -1.0010  -0.9490  -0.9140  -0.8906  -0.7974  -0.7578  -0.7316  -0.6891
 -0.6579  -0.6200  -0.5852  -0.5801  -0.5712  -0.5690  -0.5496  -0.5347
 -0.5288  -0.5160  -0.5078  -0.4922  -0.4688  -0.4667  -0.4591  -0.3500
 -0.3388  -0.3319  -0.2830

          Ground-State Mulliken Net Atomic Charges

     Atom                 Charge (a.u.)
  ----------------------------------------
      1 C                    -0.231912
      2 C                    -0.243056
      3 C                     0.027308
      4 H                     0.181468
      5 C                    -0.016799
      6 S                     0.015570
      7 C                    -0.288509
      8 H                     0.107445
      9 H                     0.106892
     10 H                     0.109404
     11 H                     0.202140
     12 C                    -0.070679
     13 C                    -0.234074
     14 C                     0.032418
     15 H                     0.196300
     16 C                    -0.194026
     17 S                     0.044093
     18 C                    -0.265743
     19 H                     0.103734
     20 H                     0.108785
     21 H                     0.107718
     22 H                     0.201522
  ----------------------------------------
  Sum of atomic charges =     0.000000

                    Cartesian Multipole Moments
 -----------------------------------------------------------------
    Charge (ESU x 10^10)
                -0.0000
    Dipole Moment (Debye)
         X       0.9697      Y       0.8024      Z       0.8079
       Tot       1.4956
    Quadrupole Moments (Debye-Ang)
        XX     -80.8397     XY       8.1080     YY     -77.0252
        XZ       3.2001     YZ       1.7429     ZZ     -84.5583

 Total job time:  563.17s(wall), 559.16s(cpu)
        *  Thank you very much for using Q-Chem.  Have a nice day.  *
