 Q-Chem 5.4, Q-Chem, Inc., Pleasanton, CA (2021)
 Q-Chem 5.4.0 for Intel X86 EM64T Linux

User input:
--------------------------------------------------------------
$molecule
0 1
C	-0.763228	-3.866725	-0.135301
C	0.603311	-3.703963	0.106073
C	1.050423	-2.357056	0.185286
H	1.283188	-4.561092	0.225783
C	0.000000	-1.440664	0.000000
S	-1.521021	-2.286957	-0.268187
C	2.483507	-1.978743	0.438209
H	3.118798	-2.878678	0.550153
H	2.593381	-1.376015	1.363906
H	2.903516	-1.375728	-0.393798
H	-1.354194	-4.783437	-0.239740
C	0.000000	0.000000	0.000000
C	0.747916	0.431772	1.099446
C	1.946425	1.123709	0.776721
H	0.428523	0.247378	2.136088
C	2.137531	1.234018	-0.612546
S	0.816154	0.471179	-1.486809
C	2.888455	1.667564	1.814609
H	2.519842	1.454746	2.836676
H	3.008896	2.767543	1.726239
H	3.901271	1.221850	1.726228
H	2.959587	1.708609	-1.161575
$end

$rem
JOBTYPE		SP
EXCHANGE	HF
CORRELATION	pRIMP2
BASIS		cc-pvtz
METHOD		rimp2
AUX_BASIS	rimp2-cc-pvtz
SOLVENT_METHOD	PCM
PURECART	11111
SYMMETRY	false
MEM_TOTAL	110000
SCF_CONVERGENCE = 6
THRESH=10
$end

$solvent
dielectric 4.90
$end
--------------------------------------------------------------

             Standard Nuclear Orientation (Angstroms)
    I     Atom           X                Y                Z
 ----------------------------------------------------------------
    1      C      -0.7632280000    -3.8667250000    -0.1353010000
    2      C       0.6033110000    -3.7039630000     0.1060730000
    3      C       1.0504230000    -2.3570560000     0.1852860000
    4      H       1.2831880000    -4.5610920000     0.2257830000
    5      C       0.0000000000    -1.4406640000     0.0000000000
    6      S      -1.5210210000    -2.2869570000    -0.2681870000
    7      C       2.4835070000    -1.9787430000     0.4382090000
    8      H       3.1187980000    -2.8786780000     0.5501530000
    9      H       2.5933810000    -1.3760150000     1.3639060000
   10      H       2.9035160000    -1.3757280000    -0.3937980000
   11      H      -1.3541940000    -4.7834370000    -0.2397400000
   12      C       0.0000000000     0.0000000000     0.0000000000
   13      C       0.7479160000     0.4317720000     1.0994460000
   14      C       1.9464250000     1.1237090000     0.7767210000
   15      H       0.4285230000     0.2473780000     2.1360880000
   16      C       2.1375310000     1.2340180000    -0.6125460000
   17      S       0.8161540000     0.4711790000    -1.4868090000
   18      C       2.8884550000     1.6675640000     1.8146090000
   19      H       2.5198420000     1.4547460000     2.8366760000
   20      H       3.0088960000     2.7675430000     1.7262390000
   21      H       3.9012710000     1.2218500000     1.7262280000
   22      H       2.9595870000     1.7086090000    -1.1615750000
 ----------------------------------------------------------------

   11   -1179.6120837900      4.83e-07  Convergence criterion met
 Total energy in the final basis set =    -1179.6120837900
        RIMP2         total energy =     -1181.6113402204 a.u.

                    Orbital Energies (a.u.)
 --------------------------------------------------------------

 Alpha MOs
 -- Occupied --
-91.9836 -91.9730 -11.2889 -11.2733 -11.2658 -11.2614 -11.2521 -11.2495
-11.2411 -11.2368 -11.2319 -11.2242  -8.9840  -8.9732  -6.6647  -6.6639
 -6.6636  -6.6541  -6.6535  -6.6530  -1.1912  -1.1447  -1.0460  -1.0174
 -1.0010  -0.9520  -0.9138  -0.8885  -0.7949  -0.7497  -0.7422  -0.6951
 -0.6546  -0.6210  -0.5871  -0.5840  -0.5729  -0.5662  -0.5486  -0.5352
 -0.5256  -0.5229  -0.5128  -0.4867  -0.4688  -0.4624  -0.4429  -0.3524
 -0.3360  -0.3202  -0.2900

          Ground-State Mulliken Net Atomic Charges

     Atom                 Charge (a.u.)
  ----------------------------------------
      1 C                    -0.224510
      2 C                    -0.258286
      3 C                     0.045941
      4 H                     0.181868
      5 C                     0.008110
      6 S                    -0.002382
      7 C                    -0.328217
      8 H                     0.120712
      9 H                     0.111771
     10 H                     0.117824
     11 H                     0.199076
     12 C                    -0.162165
     13 C                    -0.127335
     14 C                     0.004695
     15 H                     0.195608
     16 C                    -0.189427
     17 S                     0.046430
     18 C                    -0.275150
     19 H                     0.106031
     20 H                     0.119372
     21 H                     0.106124
     22 H                     0.203911
  ----------------------------------------
  Sum of atomic charges =     0.000000

                    Cartesian Multipole Moments
 -----------------------------------------------------------------
    Charge (ESU x 10^10)
                -0.0000
    Dipole Moment (Debye)
         X       4.4421      Y       0.8168      Z       1.9002
       Tot       4.9000
    Quadrupole Moments (Debye-Ang)
        XX     -77.4710     XY       3.1631     YY     -80.4120
        XZ       1.4373     YZ       0.1524     ZZ     -85.6304

 Total job time:  685.50s(wall), 674.20s(cpu)
        *  Thank you very much for using Q-Chem.  Have a nice day.  *
