 Q-Chem 5.4, Q-Chem, Inc., Pleasanton, CA (2021)
 Q-Chem 5.4.0 for Intel X86 EM64T Linux

User input:
--------------------------------------------------------------
$molecule
0 1
C	-0.763228	-3.866725	-0.135301
C	0.603311	-3.703963	0.106073
C	1.050423	-2.357056	0.185286
H	1.283188	-4.561092	0.225783
C	-0.000000	-1.440664	-0.000000
S	-1.521021	-2.286957	-0.268187
C	2.483507	-1.978743	0.438209
H	3.118798	-2.878678	0.550153
H	2.593381	-1.376015	1.363906
H	2.903516	-1.375728	-0.393798
H	-1.354194	-4.783437	-0.239740
C	0.000000	0.000000	0.000000
C	0.075300	0.860311	1.099446
C	0.195935	2.238951	0.776721
H	0.043151	0.492916	2.136088
C	0.215188	2.458766	-0.612546
S	0.082160	0.938811	-1.486809
C	0.290762	3.322559	1.814609
H	0.253664	2.898542	2.836676
H	-0.541206	4.052140	1.726239
H	1.236797	3.896558	1.726228
H	0.297938	3.404370	-1.161575
$end

$rem
JOBTYPE		SP
EXCHANGE	HF
CORRELATION	pRIMP2
BASIS		cc-pvtz
METHOD		rimp2
AUX_BASIS	rimp2-cc-pvtz
SOLVENT_METHOD	PCM
PURECART	11111
SYMMETRY	false
MEM_TOTAL	110000
SCF_CONVERGENCE = 6
THRESH=10
$end

$solvent
dielectric 4.90
$end
--------------------------------------------------------------

             Standard Nuclear Orientation (Angstroms)
    I     Atom           X                Y                Z
 ----------------------------------------------------------------
    1      C      -0.7632280000    -3.8667250000    -0.1353010000
    2      C       0.6033110000    -3.7039630000     0.1060730000
    3      C       1.0504230000    -2.3570560000     0.1852860000
    4      H       1.2831880000    -4.5610920000     0.2257830000
    5      C       0.0000000000    -1.4406640000     0.0000000000
    6      S      -1.5210210000    -2.2869570000    -0.2681870000
    7      C       2.4835070000    -1.9787430000     0.4382090000
    8      H       3.1187980000    -2.8786780000     0.5501530000
    9      H       2.5933810000    -1.3760150000     1.3639060000
   10      H       2.9035160000    -1.3757280000    -0.3937980000
   11      H      -1.3541940000    -4.7834370000    -0.2397400000
   12      C       0.0000000000     0.0000000000     0.0000000000
   13      C       0.0753000000     0.8603110000     1.0994460000
   14      C       0.1959350000     2.2389510000     0.7767210000
   15      H       0.0431510000     0.4929160000     2.1360880000
   16      C       0.2151880000     2.4587660000    -0.6125460000
   17      S       0.0821600000     0.9388110000    -1.4868090000
   18      C       0.2907620000     3.3225590000     1.8146090000
   19      H       0.2536640000     2.8985420000     2.8366760000
   20      H      -0.5412060000     4.0521400000     1.7262390000
   21      H       1.2367970000     3.8965580000     1.7262280000
   22      H       0.2979380000     3.4043700000    -1.1615750000
 ----------------------------------------------------------------

   10   -1179.6851686584      5.11e-07  Convergence criterion met
 Total energy in the final basis set =    -1179.6851686584
        RIMP2         total energy =     -1181.6632392934 a.u.

                    Orbital Energies (a.u.)
 --------------------------------------------------------------

 Alpha MOs
 -- Occupied --
-91.9855 -91.9841 -11.2785 -11.2728 -11.2725 -11.2649 -11.2544 -11.2509
-11.2424 -11.2419 -11.2294 -11.2290  -8.9849  -8.9838  -6.6658  -6.6653
 -6.6647  -6.6647  -6.6641  -6.6635  -1.1784  -1.1496  -1.0400  -1.0231
 -0.9969  -0.9545  -0.9133  -0.8923  -0.8008  -0.7531  -0.7311  -0.6955
 -0.6623  -0.6161  -0.5824  -0.5794  -0.5709  -0.5686  -0.5520  -0.5311
 -0.5302  -0.5203  -0.5080  -0.4916  -0.4877  -0.4645  -0.4625  -0.3460
 -0.3383  -0.3211  -0.3040

          Ground-State Mulliken Net Atomic Charges

     Atom                 Charge (a.u.)
  ----------------------------------------
      1 C                    -0.214556
      2 C                    -0.247528
      3 C                     0.049184
      4 H                     0.184367
      5 C                    -0.042441
      6 S                     0.026624
      7 C                    -0.280540
      8 H                     0.108536
      9 H                     0.109509
     10 H                     0.111315
     11 H                     0.204332
     12 C                    -0.020761
     13 C                    -0.227156
     14 C                     0.017772
     15 H                     0.186923
     16 C                    -0.238308
     17 S                     0.027422
     18 C                    -0.271389
     19 H                     0.102622
     20 H                     0.108401
     21 H                     0.107815
     22 H                     0.197856
  ----------------------------------------
  Sum of atomic charges =     0.000000

                    Cartesian Multipole Moments
 -----------------------------------------------------------------
    Charge (ESU x 10^10)
                -0.0000
    Dipole Moment (Debye)
         X       1.6650      Y       0.2485      Z       1.7155
       Tot       2.4035
    Quadrupole Moments (Debye-Ang)
        XX     -86.2775     XY      -1.1715     YY     -68.7943
        XZ       1.2048     YZ       0.6456     ZZ     -86.5377

 Total job time:  557.87s(wall), 552.51s(cpu)
        *  Thank you very much for using Q-Chem.  Have a nice day.  *
