 Q-Chem 5.4, Q-Chem, Inc., Pleasanton, CA (2021)
 Q-Chem 5.4.0 for Intel X86 EM64T Linux

User input:
--------------------------------------------------------------
$molecule
0 1
C	0.670924	-3.866725	0.388181
C	-0.530648	-3.703963	-0.306020
C	-0.923703	-2.357056	-0.533378
H	-1.128579	-4.561092	-0.651043
C	0.000000	-1.440664	0.000000
S	1.337567	-2.286957	0.772234
C	-2.183857	-1.978743	-1.261192
H	-2.742548	-2.878678	-1.583666
H	-1.970497	-1.376015	-2.168641
H	-2.863099	-1.375728	-0.623012
H	1.190530	-4.783437	0.688443
C	0.000000	0.000000	0.000000
C	0.431829	0.747884	1.099446
C	1.123799	1.946373	0.776721
H	0.247423	0.428497	2.136088
C	1.234147	2.137457	-0.612546
S	0.471221	0.816130	-1.486809
C	1.667694	2.888380	1.814609
H	1.454874	2.519768	2.836676
H	1.222009	3.901210	1.726239
H	2.767675	3.008788	1.726228
H	1.708773	2.959493	-1.161575
$end

$rem
JOBTYPE		SP
EXCHANGE	HF
CORRELATION	pRIMP2
BASIS		cc-pvtz
METHOD		rimp2
AUX_BASIS	rimp2-cc-pvtz
SOLVENT_METHOD	PCM
PURECART	11111
SYMMETRY	false
MEM_TOTAL	110000
SCF_CONVERGENCE = 6
THRESH=10
$end

$solvent
dielectric 4.90
$end
--------------------------------------------------------------

             Standard Nuclear Orientation (Angstroms)
    I     Atom           X                Y                Z
 ----------------------------------------------------------------
    1      C       0.6709240000    -3.8667250000     0.3881810000
    2      C      -0.5306480000    -3.7039630000    -0.3060200000
    3      C      -0.9237030000    -2.3570560000    -0.5333780000
    4      H      -1.1285790000    -4.5610920000    -0.6510430000
    5      C       0.0000000000    -1.4406640000     0.0000000000
    6      S       1.3375670000    -2.2869570000     0.7722340000
    7      C      -2.1838570000    -1.9787430000    -1.2611920000
    8      H      -2.7425480000    -2.8786780000    -1.5836660000
    9      H      -1.9704970000    -1.3760150000    -2.1686410000
   10      H      -2.8630990000    -1.3757280000    -0.6230120000
   11      H       1.1905300000    -4.7834370000     0.6884430000
   12      C       0.0000000000     0.0000000000     0.0000000000
   13      C       0.4318290000     0.7478840000     1.0994460000
   14      C       1.1237990000     1.9463730000     0.7767210000
   15      H       0.2474230000     0.4284970000     2.1360880000
   16      C       1.2341470000     2.1374570000    -0.6125460000
   17      S       0.4712210000     0.8161300000    -1.4868090000
   18      C       1.6676940000     2.8883800000     1.8146090000
   19      H       1.4548740000     2.5197680000     2.8366760000
   20      H       1.2220090000     3.9012100000     1.7262390000
   21      H       2.7676750000     3.0087880000     1.7262280000
   22      H       1.7087730000     2.9594930000    -1.1615750000
 ----------------------------------------------------------------

   10   -1179.6710005453      5.10e-07  Convergence criterion met
 Total energy in the final basis set =    -1179.6710005453
        RIMP2         total energy =     -1181.6530247832 a.u.

                    Orbital Energies (a.u.)
 --------------------------------------------------------------

 Alpha MOs
 -- Occupied --
-91.9844 -91.9835 -11.2734 -11.2720 -11.2705 -11.2696 -11.2519 -11.2489
-11.2463 -11.2405 -11.2294 -11.2286  -8.9842  -8.9831  -6.6651  -6.6645
 -6.6640  -6.6639  -6.6634  -6.6628  -1.1808  -1.1488  -1.0413  -1.0220
 -0.9986  -0.9515  -0.9141  -0.8918  -0.7991  -0.7579  -0.7277  -0.6921
 -0.6610  -0.6171  -0.5829  -0.5795  -0.5726  -0.5694  -0.5512  -0.5337
 -0.5271  -0.5183  -0.5082  -0.4932  -0.4811  -0.4664  -0.4600  -0.3461
 -0.3383  -0.3373  -0.2871

          Ground-State Mulliken Net Atomic Charges

     Atom                 Charge (a.u.)
  ----------------------------------------
      1 C                    -0.215008
      2 C                    -0.249668
      3 C                     0.039162
      4 H                     0.182758
      5 C                    -0.030141
      6 S                     0.025098
      7 C                    -0.286725
      8 H                     0.107901
      9 H                     0.108596
     10 H                     0.110961
     11 H                     0.204042
     12 C                     0.006465
     13 C                    -0.301102
     14 C                     0.057262
     15 H                     0.190893
     16 C                    -0.233185
     17 S                     0.032962
     18 C                    -0.268075
     19 H                     0.103080
     20 H                     0.107856
     21 H                     0.108344
     22 H                     0.198522
  ----------------------------------------
  Sum of atomic charges =     0.000000

                    Cartesian Multipole Moments
 -----------------------------------------------------------------
    Charge (ESU x 10^10)
                -0.0000
    Dipole Moment (Debye)
         X      -0.1583      Y       0.4390      Z       0.7331
       Tot       0.8690
    Quadrupole Moments (Debye-Ang)
        XX     -85.0068     XY       6.7922     YY     -71.9061
        XZ       3.3011     YZ       1.9342     ZZ     -84.9148

 Total job time:  548.71s(wall), 544.36s(cpu)
        *  Thank you very much for using Q-Chem.  Have a nice day.  *
