 Q-Chem 5.4, Q-Chem, Inc., Pleasanton, CA (2021)
 Q-Chem 5.4.0 for Intel X86 EM64T Linux

User input:
--------------------------------------------------------------
$molecule
0 1
C	-0.728138	-3.866725	-0.265779
C	0.575726	-3.703963	0.209225
C	1.002290	-2.357056	0.364875
H	1.224486	-4.561092	0.445176
C	0.000000	-1.440664	0.000000
S	-1.451343	-2.286957	-0.528236
C	2.369683	-1.978743	0.862808
H	2.975883	-2.878678	1.083368
H	2.317142	-1.376015	1.793522
H	2.927787	-1.375728	0.116375
H	-1.291990	-4.783437	-0.471251
C	0.000000	0.000000	0.000000
C	0.295399	0.811508	1.099446
C	0.768742	2.111949	0.776721
H	0.169256	0.464952	2.136088
C	0.844232	2.319291	-0.612546
S	0.322342	0.885558	-1.486809
C	1.140796	3.134091	1.814609
H	0.995218	2.734123	2.836676
H	0.526006	4.054142	1.726239
H	2.203157	3.443680	1.726228
H	1.168902	3.211257	-1.161575
$end

$rem
JOBTYPE		SP
EXCHANGE	HF
CORRELATION	pRIMP2
BASIS		cc-pvtz
METHOD		rimp2
AUX_BASIS	rimp2-cc-pvtz
SOLVENT_METHOD	PCM
PURECART	11111
SYMMETRY	false
MEM_TOTAL	110000
SCF_CONVERGENCE = 6
THRESH=10
$end

$solvent
dielectric 4.90
$end
--------------------------------------------------------------

             Standard Nuclear Orientation (Angstroms)
    I     Atom           X                Y                Z
 ----------------------------------------------------------------
    1      C      -0.7281380000    -3.8667250000    -0.2657790000
    2      C       0.5757260000    -3.7039630000     0.2092250000
    3      C       1.0022900000    -2.3570560000     0.3648750000
    4      H       1.2244860000    -4.5610920000     0.4451760000
    5      C       0.0000000000    -1.4406640000     0.0000000000
    6      S      -1.4513430000    -2.2869570000    -0.5282360000
    7      C       2.3696830000    -1.9787430000     0.8628080000
    8      H       2.9758830000    -2.8786780000     1.0833680000
    9      H       2.3171420000    -1.3760150000     1.7935220000
   10      H       2.9277870000    -1.3757280000     0.1163750000
   11      H      -1.2919900000    -4.7834370000    -0.4712510000
   12      C       0.0000000000     0.0000000000     0.0000000000
   13      C       0.2953990000     0.8115080000     1.0994460000
   14      C       0.7687420000     2.1119490000     0.7767210000
   15      H       0.1692560000     0.4649520000     2.1360880000
   16      C       0.8442320000     2.3192910000    -0.6125460000
   17      S       0.3223420000     0.8855580000    -1.4868090000
   18      C       1.1407960000     3.1340910000     1.8146090000
   19      H       0.9952180000     2.7341230000     2.8366760000
   20      H       0.5260060000     4.0541420000     1.7262390000
   21      H       2.2031570000     3.4436800000     1.7262280000
   22      H       1.1689020000     3.2112570000    -1.1615750000
 ----------------------------------------------------------------

   10   -1179.6786456695      5.38e-07  Convergence criterion met
 Total energy in the final basis set =    -1179.6786456695
        RIMP2         total energy =     -1181.6592052196 a.u.

                    Orbital Energies (a.u.)
 --------------------------------------------------------------

 Alpha MOs
 -- Occupied --
-91.9851 -91.9825 -11.2756 -11.2730 -11.2714 -11.2675 -11.2534 -11.2514
-11.2443 -11.2416 -11.2295 -11.2289  -8.9847  -8.9823  -6.6656  -6.6650
 -6.6644  -6.6632  -6.6626  -6.6621  -1.1792  -1.1493  -1.0406  -1.0227
 -0.9968  -0.9546  -0.9130  -0.8922  -0.7999  -0.7525  -0.7322  -0.6962
 -0.6613  -0.6161  -0.5829  -0.5799  -0.5713  -0.5675  -0.5516  -0.5326
 -0.5288  -0.5211  -0.5092  -0.4913  -0.4836  -0.4650  -0.4606  -0.3445
 -0.3399  -0.3293  -0.2957

          Ground-State Mulliken Net Atomic Charges

     Atom                 Charge (a.u.)
  ----------------------------------------
      1 C                    -0.213512
      2 C                    -0.250782
      3 C                     0.067964
      4 H                     0.183953
      5 C                    -0.036610
      6 S                     0.023835
      7 C                    -0.281021
      8 H                     0.110038
      9 H                     0.108832
     10 H                     0.113954
     11 H                     0.204059
     12 C                    -0.040676
     13 C                    -0.252094
     14 C                     0.034656
     15 H                     0.190256
     16 C                    -0.238028
     17 S                     0.027989
     18 C                    -0.270242
     19 H                     0.102624
     20 H                     0.108450
     21 H                     0.107762
     22 H                     0.198593
  ----------------------------------------
  Sum of atomic charges =     0.000000

                    Cartesian Multipole Moments
 -----------------------------------------------------------------
    Charge (ESU x 10^10)
                -0.0000
    Dipole Moment (Debye)
         X       2.1586      Y       0.3504      Z       2.0082
       Tot       2.9690
    Quadrupole Moments (Debye-Ang)
        XX     -85.7301     XY       1.5110     YY     -70.1798
        XZ       2.4198     YZ       0.1789     ZZ     -85.9151

 Total job time:  558.34s(wall), 555.57s(cpu)
        *  Thank you very much for using Q-Chem.  Have a nice day.  *
