 Q-Chem 5.4, Q-Chem, Inc., Pleasanton, CA (2021)
 Q-Chem 5.4.0 for Intel X86 EM64T Linux

User input:
--------------------------------------------------------------
$molecule
0 1
C	0.264439	-3.866725	0.728625
C	-0.209794	-3.703963	-0.575519
C	-0.364749	-2.357056	-1.002336
H	-0.446060	-4.561092	-1.224165
C	0.000000	-1.440664	0.000000
S	0.528253	-2.286957	1.451336
C	-0.862253	-1.978743	-2.369885
H	-1.082953	-2.878678	-2.976034
H	-0.115513	-1.376015	-2.927887
H	-1.792797	-1.375728	-2.317620
H	0.469476	-4.783437	1.292636
C	0.000000	0.000000	0.000000
C	0.295399	0.811508	1.099446
C	0.768742	2.111949	0.776721
H	0.169256	0.464952	2.136088
C	0.844232	2.319291	-0.612546
S	0.322342	0.885558	-1.486809
C	1.140796	3.134091	1.814609
H	0.995218	2.734123	2.836676
H	0.526006	4.054142	1.726239
H	2.203157	3.443680	1.726228
H	1.168902	3.211257	-1.161575
$end

$rem
JOBTYPE		SP
EXCHANGE	HF
CORRELATION	pRIMP2
BASIS		cc-pvtz
METHOD		rimp2
AUX_BASIS	rimp2-cc-pvtz
SOLVENT_METHOD	PCM
PURECART	11111
SYMMETRY	false
MEM_TOTAL	110000
SCF_CONVERGENCE = 6
THRESH=10
$end

$solvent
dielectric 4.90
$end
--------------------------------------------------------------

             Standard Nuclear Orientation (Angstroms)
    I     Atom           X                Y                Z
 ----------------------------------------------------------------
    1      C       0.2644390000    -3.8667250000     0.7286250000
    2      C      -0.2097940000    -3.7039630000    -0.5755190000
    3      C      -0.3647490000    -2.3570560000    -1.0023360000
    4      H      -0.4460600000    -4.5610920000    -1.2241650000
    5      C       0.0000000000    -1.4406640000     0.0000000000
    6      S       0.5282530000    -2.2869570000     1.4513360000
    7      C      -0.8622530000    -1.9787430000    -2.3698850000
    8      H      -1.0829530000    -2.8786780000    -2.9760340000
    9      H      -0.1155130000    -1.3760150000    -2.9278870000
   10      H      -1.7927970000    -1.3757280000    -2.3176200000
   11      H       0.4694760000    -4.7834370000     1.2926360000
   12      C       0.0000000000     0.0000000000     0.0000000000
   13      C       0.2953990000     0.8115080000     1.0994460000
   14      C       0.7687420000     2.1119490000     0.7767210000
   15      H       0.1692560000     0.4649520000     2.1360880000
   16      C       0.8442320000     2.3192910000    -0.6125460000
   17      S       0.3223420000     0.8855580000    -1.4868090000
   18      C       1.1407960000     3.1340910000     1.8146090000
   19      H       0.9952180000     2.7341230000     2.8366760000
   20      H       0.5260060000     4.0541420000     1.7262390000
   21      H       2.2031570000     3.4436800000     1.7262280000
   22      H       1.1689020000     3.2112570000    -1.1615750000
 ----------------------------------------------------------------

   10   -1179.6796294041      5.24e-07  Convergence criterion met
 Total energy in the final basis set =    -1179.6796294041
        RIMP2         total energy =     -1181.6615149960 a.u.

                    Orbital Energies (a.u.)
 --------------------------------------------------------------

 Alpha MOs
 -- Occupied --
-91.9852 -91.9843 -11.2814 -11.2772 -11.2711 -11.2654 -11.2528 -11.2517
-11.2428 -11.2424 -11.2300 -11.2292  -8.9850  -8.9841  -6.6659  -6.6653
 -6.6650  -6.6647  -6.6645  -6.6638  -1.1819  -1.1499  -1.0424  -1.0251
 -0.9993  -0.9520  -0.9152  -0.8945  -0.8001  -0.7648  -0.7210  -0.6949
 -0.6628  -0.6163  -0.5842  -0.5806  -0.5781  -0.5700  -0.5527  -0.5345
 -0.5243  -0.5202  -0.5108  -0.4963  -0.4877  -0.4678  -0.4523  -0.3665
 -0.3434  -0.3409  -0.2697

          Ground-State Mulliken Net Atomic Charges

     Atom                 Charge (a.u.)
  ----------------------------------------
      1 C                    -0.215556
      2 C                    -0.249858
      3 C                     0.040242
      4 H                     0.184324
      5 C                    -0.016917
      6 S                     0.009663
      7 C                    -0.315885
      8 H                     0.114976
      9 H                     0.112362
     10 H                     0.119092
     11 H                     0.206130
     12 C                     0.056281
     13 C                    -0.305195
     14 C                     0.054423
     15 H                     0.180335
     16 C                    -0.257575
     17 S                     0.033694
     18 C                    -0.269348
     19 H                     0.103086
     20 H                     0.108310
     21 H                     0.109228
     22 H                     0.198189
  ----------------------------------------
  Sum of atomic charges =     0.000000

                    Cartesian Multipole Moments
 -----------------------------------------------------------------
    Charge (ESU x 10^10)
                -0.0000
    Dipole Moment (Debye)
         X       0.1560      Y       0.2402      Z      -0.0194
       Tot       0.2870
    Quadrupole Moments (Debye-Ang)
        XX     -90.6629     XY       4.3558     YY     -70.0647
        XZ       2.5292     YZ       3.1455     ZZ     -80.6570

 Total job time:  555.78s(wall), 552.13s(cpu)
        *  Thank you very much for using Q-Chem.  Have a nice day.  *
