 Q-Chem 5.4, Q-Chem, Inc., Pleasanton, CA (2021)
 Q-Chem 5.4.0 for Intel X86 EM64T Linux

User input:
--------------------------------------------------------------
$molecule
0 1
C	-0.497696	-3.866725	-0.594240
C	0.393981	-3.703963	0.469057
C	0.685571	-2.357056	0.817136
H	0.837848	-4.561092	0.997777
C	0.000000	-1.440664	0.000000
S	-0.992782	-2.286957	-1.183137
C	1.620802	-1.978743	1.932056
H	2.035506	-2.878678	2.426166
H	1.109943	-1.376015	2.711806
H	2.477350	-1.375728	1.564678
H	-0.883271	-4.783437	-1.054110
C	0.000000	0.000000	0.000000
C	0.747916	0.431772	1.099446
C	1.946425	1.123709	0.776721
H	0.428523	0.247378	2.136088
C	2.137531	1.234018	-0.612546
S	0.816154	0.471179	-1.486809
C	2.888455	1.667564	1.814609
H	2.519842	1.454746	2.836676
H	3.008896	2.767543	1.726239
H	3.901271	1.221850	1.726228
H	2.959587	1.708609	-1.161575
$end

$rem
JOBTYPE		SP
EXCHANGE	HF
CORRELATION	pRIMP2
BASIS		cc-pvtz
METHOD		rimp2
AUX_BASIS	rimp2-cc-pvtz
SOLVENT_METHOD	PCM
PURECART	11111
SYMMETRY	false
MEM_TOTAL	110000
SCF_CONVERGENCE = 6
THRESH=10
$end

$solvent
dielectric 4.90
$end
--------------------------------------------------------------

             Standard Nuclear Orientation (Angstroms)
    I     Atom           X                Y                Z
 ----------------------------------------------------------------
    1      C      -0.4976960000    -3.8667250000    -0.5942400000
    2      C       0.3939810000    -3.7039630000     0.4690570000
    3      C       0.6855710000    -2.3570560000     0.8171360000
    4      H       0.8378480000    -4.5610920000     0.9977770000
    5      C       0.0000000000    -1.4406640000     0.0000000000
    6      S      -0.9927820000    -2.2869570000    -1.1831370000
    7      C       1.6208020000    -1.9787430000     1.9320560000
    8      H       2.0355060000    -2.8786780000     2.4261660000
    9      H       1.1099430000    -1.3760150000     2.7118060000
   10      H       2.4773500000    -1.3757280000     1.5646780000
   11      H      -0.8832710000    -4.7834370000    -1.0541100000
   12      C       0.0000000000     0.0000000000     0.0000000000
   13      C       0.7479160000     0.4317720000     1.0994460000
   14      C       1.9464250000     1.1237090000     0.7767210000
   15      H       0.4285230000     0.2473780000     2.1360880000
   16      C       2.1375310000     1.2340180000    -0.6125460000
   17      S       0.8161540000     0.4711790000    -1.4868090000
   18      C       2.8884550000     1.6675640000     1.8146090000
   19      H       2.5198420000     1.4547460000     2.8366760000
   20      H       3.0088960000     2.7675430000     1.7262390000
   21      H       3.9012710000     1.2218500000     1.7262280000
   22      H       2.9595870000     1.7086090000    -1.1615750000
 ----------------------------------------------------------------

   11   -1179.6075423007      5.12e-07  Convergence criterion met
 Total energy in the final basis set =    -1179.6075423007
        RIMP2         total energy =     -1181.6054643907 a.u.

                    Orbital Energies (a.u.)
 --------------------------------------------------------------

 Alpha MOs
 -- Occupied --
-91.9825 -91.9719 -11.2909 -11.2770 -11.2649 -11.2611 -11.2545 -11.2527
-11.2400 -11.2376 -11.2327 -11.2264  -8.9832  -8.9726  -6.6639  -6.6631
 -6.6627  -6.6536  -6.6530  -6.6524  -1.1931  -1.1455  -1.0475  -1.0252
 -0.9972  -0.9523  -0.9142  -0.8929  -0.7959  -0.7559  -0.7363  -0.7021
 -0.6531  -0.6197  -0.5977  -0.5865  -0.5679  -0.5605  -0.5489  -0.5414
 -0.5287  -0.5236  -0.5085  -0.4867  -0.4739  -0.4586  -0.4498  -0.3559
 -0.3422  -0.3356  -0.2705

          Ground-State Mulliken Net Atomic Charges

     Atom                 Charge (a.u.)
  ----------------------------------------
      1 C                    -0.222370
      2 C                    -0.264411
      3 C                     0.034091
      4 H                     0.181628
      5 C                     0.019579
      6 S                    -0.013052
      7 C                    -0.306068
      8 H                     0.114893
      9 H                     0.102452
     10 H                     0.115064
     11 H                     0.201065
     12 C                    -0.166327
     13 C                    -0.097899
     14 C                    -0.033160
     15 H                     0.195405
     16 C                    -0.168220
     17 S                     0.045582
     18 C                    -0.279848
     19 H                     0.106805
     20 H                     0.122240
     21 H                     0.108778
     22 H                     0.203772
  ----------------------------------------
  Sum of atomic charges =     0.000000

                    Cartesian Multipole Moments
 -----------------------------------------------------------------
    Charge (ESU x 10^10)
                -0.0000
    Dipole Moment (Debye)
         X       3.9511      Y       0.9583      Z       2.9283
       Tot       5.0104
    Quadrupole Moments (Debye-Ang)
        XX     -80.3427     XY       4.1781     YY     -80.2687
        XZ       3.3771     YZ      -1.2984     ZZ     -82.5220

 Total job time:  663.75s(wall), 660.85s(cpu)
        *  Thank you very much for using Q-Chem.  Have a nice day.  *
