 Q-Chem 5.4, Q-Chem, Inc., Pleasanton, CA (2021)
 Q-Chem 5.4.0 for Intel X86 EM64T Linux

User input:
--------------------------------------------------------------
$molecule
0 1
C	-0.763475	-3.866725	0.133897
C	0.603206	-3.703963	-0.106669
C	1.050446	-2.357056	-0.185154
H	1.283024	-4.561092	-0.226709
C	0.000000	-1.440664	0.000000
S	-1.521018	-2.286957	0.268206
C	2.483610	-1.978743	-0.437628
H	3.118875	-2.878678	-0.549717
H	2.903464	-1.376015	0.394664
H	2.593726	-1.375728	-1.363110
H	-1.354522	-4.783437	0.237880
C	0.000000	0.000000	0.000000
C	0.747916	0.431772	1.099446
C	1.946425	1.123709	0.776721
H	0.428523	0.247378	2.136088
C	2.137531	1.234018	-0.612546
S	0.816154	0.471179	-1.486809
C	2.888455	1.667564	1.814609
H	2.519842	1.454746	2.836676
H	3.008896	2.767543	1.726239
H	3.901271	1.221850	1.726228
H	2.959587	1.708609	-1.161575
$end

$rem
JOBTYPE		SP
EXCHANGE	HF
CORRELATION	pRIMP2
BASIS		cc-pvtz
METHOD		rimp2
AUX_BASIS	rimp2-cc-pvtz
SOLVENT_METHOD	PCM
PURECART	11111
SYMMETRY	false
MEM_TOTAL	110000
SCF_CONVERGENCE = 6
THRESH=10
$end

$solvent
dielectric 4.90
$end
--------------------------------------------------------------

             Standard Nuclear Orientation (Angstroms)
    I     Atom           X                Y                Z
 ----------------------------------------------------------------
    1      C      -0.7634750000    -3.8667250000     0.1338970000
    2      C       0.6032060000    -3.7039630000    -0.1066690000
    3      C       1.0504460000    -2.3570560000    -0.1851540000
    4      H       1.2830240000    -4.5610920000    -0.2267090000
    5      C       0.0000000000    -1.4406640000     0.0000000000
    6      S      -1.5210180000    -2.2869570000     0.2682060000
    7      C       2.4836100000    -1.9787430000    -0.4376280000
    8      H       3.1188750000    -2.8786780000    -0.5497170000
    9      H       2.9034640000    -1.3760150000     0.3946640000
   10      H       2.5937260000    -1.3757280000    -1.3631100000
   11      H      -1.3545220000    -4.7834370000     0.2378800000
   12      C       0.0000000000     0.0000000000     0.0000000000
   13      C       0.7479160000     0.4317720000     1.0994460000
   14      C       1.9464250000     1.1237090000     0.7767210000
   15      H       0.4285230000     0.2473780000     2.1360880000
   16      C       2.1375310000     1.2340180000    -0.6125460000
   17      S       0.8161540000     0.4711790000    -1.4868090000
   18      C       2.8884550000     1.6675640000     1.8146090000
   19      H       2.5198420000     1.4547460000     2.8366760000
   20      H       3.0088960000     2.7675430000     1.7262390000
   21      H       3.9012710000     1.2218500000     1.7262280000
   22      H       2.9595870000     1.7086090000    -1.1615750000
 ----------------------------------------------------------------

   11   -1179.6087745661      5.04e-07  Convergence criterion met
 Total energy in the final basis set =    -1179.6087745661
        RIMP2         total energy =     -1181.6088005163 a.u.

                    Orbital Energies (a.u.)
 --------------------------------------------------------------

 Alpha MOs
 -- Occupied --
-91.9826 -91.9731 -11.2890 -11.2746 -11.2672 -11.2597 -11.2531 -11.2504
-11.2392 -11.2365 -11.2320 -11.2208  -8.9832  -8.9733  -6.6639  -6.6631
 -6.6628  -6.6542  -6.6535  -6.6530  -1.1916  -1.1444  -1.0464  -1.0158
 -1.0018  -0.9521  -0.9129  -0.8882  -0.7948  -0.7534  -0.7387  -0.6939
 -0.6545  -0.6214  -0.5867  -0.5832  -0.5740  -0.5657  -0.5480  -0.5368
 -0.5248  -0.5228  -0.5129  -0.4870  -0.4675  -0.4622  -0.4391  -0.3548
 -0.3357  -0.3186  -0.2890

          Ground-State Mulliken Net Atomic Charges

     Atom                 Charge (a.u.)
  ----------------------------------------
      1 C                    -0.227497
      2 C                    -0.257551
      3 C                     0.042891
      4 H                     0.181844
      5 C                     0.007215
      6 S                    -0.006194
      7 C                    -0.334042
      8 H                     0.118196
      9 H                     0.118380
     10 H                     0.118108
     11 H                     0.198594
     12 C                    -0.155153
     13 C                    -0.110470
     14 C                    -0.024254
     15 H                     0.191596
     16 C                    -0.155602
     17 S                     0.038280
     18 C                    -0.268185
     19 H                     0.104553
     20 H                     0.113236
     21 H                     0.104798
     22 H                     0.201257
  ----------------------------------------
  Sum of atomic charges =     0.000000

                    Cartesian Multipole Moments
 -----------------------------------------------------------------
    Charge (ESU x 10^10)
                -0.0000
    Dipole Moment (Debye)
         X       4.4633      Y       0.9574      Z       1.3437
       Tot       4.7585
    Quadrupole Moments (Debye-Ang)
        XX     -77.5795     XY       3.3103     YY     -81.0611
        XZ      -0.5691     YZ       1.0788     ZZ     -85.4332

 Total job time:  673.70s(wall), 670.95s(cpu)
        *  Thank you very much for using Q-Chem.  Have a nice day.  *
