 Q-Chem 5.4, Q-Chem, Inc., Pleasanton, CA (2021)
 Q-Chem 5.4.0 for Intel X86 EM64T Linux

User input:
--------------------------------------------------------------
$molecule
0 1
C	-0.670924	-3.866725	-0.388181
C	0.530648	-3.703963	0.306020
C	0.923703	-2.357056	0.533378
H	1.128579	-4.561092	0.651043
C	-0.000000	-1.440664	-0.000000
S	-1.337567	-2.286957	-0.772234
C	2.183857	-1.978743	1.261192
H	2.742548	-2.878678	1.583666
H	1.970497	-1.376015	2.168641
H	2.863099	-1.375728	0.623012
H	-1.190530	-4.783437	-0.688443
C	0.000000	0.000000	0.000000
C	0.365003	0.782674	1.099446
C	0.949885	2.036912	0.776721
H	0.209135	0.448431	2.136088
C	1.043159	2.236886	-0.612546
S	0.398297	0.854094	-1.486809
C	1.409609	3.022738	1.814609
H	1.229726	2.636980	2.836676
H	0.877346	3.992870	1.726239
H	2.494910	3.238558	1.726228
H	1.444334	3.097160	-1.161575
$end

$rem
JOBTYPE		SP
EXCHANGE	HF
CORRELATION	pRIMP2
BASIS		cc-pvtz
METHOD		rimp2
AUX_BASIS	rimp2-cc-pvtz
SOLVENT_METHOD	PCM
PURECART	11111
SYMMETRY	false
MEM_TOTAL	110000
SCF_CONVERGENCE = 6
THRESH=10
$end

$solvent
dielectric 4.90
$end
--------------------------------------------------------------

             Standard Nuclear Orientation (Angstroms)
    I     Atom           X                Y                Z
 ----------------------------------------------------------------
    1      C      -0.6709240000    -3.8667250000    -0.3881810000
    2      C       0.5306480000    -3.7039630000     0.3060200000
    3      C       0.9237030000    -2.3570560000     0.5333780000
    4      H       1.1285790000    -4.5610920000     0.6510430000
    5      C       0.0000000000    -1.4406640000     0.0000000000
    6      S      -1.3375670000    -2.2869570000    -0.7722340000
    7      C       2.1838570000    -1.9787430000     1.2611920000
    8      H       2.7425480000    -2.8786780000     1.5836660000
    9      H       1.9704970000    -1.3760150000     2.1686410000
   10      H       2.8630990000    -1.3757280000     0.6230120000
   11      H      -1.1905300000    -4.7834370000    -0.6884430000
   12      C       0.0000000000     0.0000000000     0.0000000000
   13      C       0.3650030000     0.7826740000     1.0994460000
   14      C       0.9498850000     2.0369120000     0.7767210000
   15      H       0.2091350000     0.4484310000     2.1360880000
   16      C       1.0431590000     2.2368860000    -0.6125460000
   17      S       0.3982970000     0.8540940000    -1.4868090000
   18      C       1.4096090000     3.0227380000     1.8146090000
   19      H       1.2297260000     2.6369800000     2.8366760000
   20      H       0.8773460000     3.9928700000     1.7262390000
   21      H       2.4949100000     3.2385580000     1.7262280000
   22      H       1.4443340000     3.0971600000    -1.1615750000
 ----------------------------------------------------------------

   10   -1179.6746668441      5.55e-07  Convergence criterion met
 Total energy in the final basis set =    -1179.6746668441
        RIMP2         total energy =     -1181.6566883378 a.u.

                    Orbital Energies (a.u.)
 --------------------------------------------------------------

 Alpha MOs
 -- Occupied --
-91.9849 -91.9818 -11.2745 -11.2734 -11.2709 -11.2689 -11.2525 -11.2517
-11.2451 -11.2416 -11.2297 -11.2286  -8.9845  -8.9817  -6.6654  -6.6648
 -6.6642  -6.6626  -6.6620  -6.6614  -1.1800  -1.1492  -1.0411  -1.0228
 -0.9966  -0.9546  -0.9129  -0.8924  -0.7996  -0.7527  -0.7323  -0.6969
 -0.6607  -0.6159  -0.5845  -0.5800  -0.5712  -0.5660  -0.5513  -0.5342
 -0.5282  -0.5219  -0.5090  -0.4911  -0.4817  -0.4661  -0.4591  -0.3441
 -0.3414  -0.3366  -0.2881

          Ground-State Mulliken Net Atomic Charges

     Atom                 Charge (a.u.)
  ----------------------------------------
      1 C                    -0.212071
      2 C                    -0.252044
      3 C                     0.065998
      4 H                     0.183871
      5 C                    -0.033596
      6 S                     0.018722
      7 C                    -0.282981
      8 H                     0.111451
      9 H                     0.107856
     10 H                     0.115358
     11 H                     0.204222
     12 C                    -0.037666
     13 C                    -0.266047
     14 C                     0.043299
     15 H                     0.192805
     16 C                    -0.236895
     17 S                     0.029278
     18 C                    -0.269595
     19 H                     0.102527
     20 H                     0.108710
     21 H                     0.107808
     22 H                     0.198990
  ----------------------------------------
  Sum of atomic charges =     0.000000

                    Cartesian Multipole Moments
 -----------------------------------------------------------------
    Charge (ESU x 10^10)
                -0.0000
    Dipole Moment (Debye)
         X       2.2516      Y       0.3978      Z       2.2755
       Tot       3.2258
    Quadrupole Moments (Debye-Ang)
        XX     -85.9173     XY       2.4126     YY     -70.9533
        XZ       3.1877     YZ      -0.2197     ZZ     -85.0359

 Total job time:  586.42s(wall), 583.14s(cpu)
        *  Thank you very much for using Q-Chem.  Have a nice day.  *
