 Q-Chem 5.4, Q-Chem, Inc., Pleasanton, CA (2021)
 Q-Chem 5.4.0 for Intel X86 EM64T Linux

User input:
--------------------------------------------------------------
$molecule
0 1
C	0.498788	-3.866725	-0.593324
C	-0.393517	-3.703963	0.469446
C	-0.685674	-2.357056	0.817050
H	-0.837128	-4.561092	0.998381
C	-0.000000	-1.440664	-0.000000
S	0.992768	-2.286957	-1.183149
C	-1.621254	-1.978743	1.931676
H	-2.035845	-2.878678	2.425882
H	-2.477868	-1.376015	1.563980
H	-1.110719	-1.375728	2.711417
H	0.884718	-4.783437	-1.052896
C	0.000000	0.000000	0.000000
C	0.365003	0.782674	1.099446
C	0.949885	2.036912	0.776721
H	0.209135	0.448431	2.136088
C	1.043159	2.236886	-0.612546
S	0.398297	0.854094	-1.486809
C	1.409609	3.022738	1.814609
H	1.229726	2.636980	2.836676
H	0.877346	3.992870	1.726239
H	2.494910	3.238558	1.726228
H	1.444334	3.097160	-1.161575
$end

$rem
JOBTYPE		SP
EXCHANGE	HF
CORRELATION	pRIMP2
BASIS		cc-pvtz
METHOD		rimp2
AUX_BASIS	rimp2-cc-pvtz
SOLVENT_METHOD	PCM
PURECART	11111
SYMMETRY	false
MEM_TOTAL	110000
SCF_CONVERGENCE = 6
THRESH=10
$end

$solvent
dielectric 4.90
$end
--------------------------------------------------------------

             Standard Nuclear Orientation (Angstroms)
    I     Atom           X                Y                Z
 ----------------------------------------------------------------
    1      C       0.4987880000    -3.8667250000    -0.5933240000
    2      C      -0.3935170000    -3.7039630000     0.4694460000
    3      C      -0.6856740000    -2.3570560000     0.8170500000
    4      H      -0.8371280000    -4.5610920000     0.9983810000
    5      C       0.0000000000    -1.4406640000     0.0000000000
    6      S       0.9927680000    -2.2869570000    -1.1831490000
    7      C      -1.6212540000    -1.9787430000     1.9316760000
    8      H      -2.0358450000    -2.8786780000     2.4258820000
    9      H      -2.4778680000    -1.3760150000     1.5639800000
   10      H      -1.1107190000    -1.3757280000     2.7114170000
   11      H       0.8847180000    -4.7834370000    -1.0528960000
   12      C       0.0000000000     0.0000000000     0.0000000000
   13      C       0.3650030000     0.7826740000     1.0994460000
   14      C       0.9498850000     2.0369120000     0.7767210000
   15      H       0.2091350000     0.4484310000     2.1360880000
   16      C       1.0431590000     2.2368860000    -0.6125460000
   17      S       0.3982970000     0.8540940000    -1.4868090000
   18      C       1.4096090000     3.0227380000     1.8146090000
   19      H       1.2297260000     2.6369800000     2.8366760000
   20      H       0.8773460000     3.9928700000     1.7262390000
   21      H       2.4949100000     3.2385580000     1.7262280000
   22      H       1.4443340000     3.0971600000    -1.1615750000
 ----------------------------------------------------------------

   10   -1179.6743041256      4.98e-07  Convergence criterion met
 Total energy in the final basis set =    -1179.6743041256
        RIMP2         total energy =     -1181.6563581002 a.u.

                    Orbital Energies (a.u.)
 --------------------------------------------------------------

 Alpha MOs
 -- Occupied --
-91.9865 -91.9839 -11.2787 -11.2766 -11.2688 -11.2676 -11.2531 -11.2480
-11.2460 -11.2415 -11.2299 -11.2292  -8.9862  -8.9837  -6.6671  -6.6665
 -6.6660  -6.6645  -6.6640  -6.6633  -1.1818  -1.1494  -1.0425  -1.0238
 -0.9964  -0.9561  -0.9119  -0.8936  -0.8023  -0.7533  -0.7308  -0.6973
 -0.6606  -0.6153  -0.5873  -0.5805  -0.5700  -0.5651  -0.5521  -0.5369
 -0.5306  -0.5204  -0.5076  -0.4907  -0.4828  -0.4741  -0.4549  -0.3614
 -0.3413  -0.3377  -0.2750

          Ground-State Mulliken Net Atomic Charges

     Atom                 Charge (a.u.)
  ----------------------------------------
      1 C                    -0.225087
      2 C                    -0.246791
      3 C                     0.032180
      4 H                     0.183099
      5 C                    -0.023330
      6 S                     0.020834
      7 C                    -0.293875
      8 H                     0.110067
      9 H                     0.111850
     10 H                     0.105609
     11 H                     0.204283
     12 C                    -0.012823
     13 C                    -0.204914
     14 C                     0.011340
     15 H                     0.193500
     16 C                    -0.222953
     17 S                     0.009517
     18 C                    -0.271122
     19 H                     0.102135
     20 H                     0.108487
     21 H                     0.108356
     22 H                     0.199640
  ----------------------------------------
  Sum of atomic charges =     0.000000

                    Cartesian Multipole Moments
 -----------------------------------------------------------------
    Charge (ESU x 10^10)
                -0.0000
    Dipole Moment (Debye)
         X       0.0008      Y       0.5969      Z       2.5771
       Tot       2.6453
    Quadrupole Moments (Debye-Ang)
        XX     -88.0443     XY       5.7039     YY     -71.4612
        XZ      -2.7202     YZ      -0.7780     ZZ     -82.7523

 Total job time:  558.06s(wall), 554.06s(cpu)
        *  Thank you very much for using Q-Chem.  Have a nice day.  *
