 Q-Chem 5.4, Q-Chem, Inc., Pleasanton, CA (2021)
 Q-Chem 5.4.0 for Intel X86 EM64T Linux

User input:
--------------------------------------------------------------
$molecule
0 1
C	-0.388181	-3.866725	0.670924
C	0.306020	-3.703963	-0.530648
C	0.533378	-2.357056	-0.923703
H	0.651043	-4.561092	-1.128579
C	0.000000	-1.440664	0.000000
S	-0.772234	-2.286957	1.337567
C	1.261192	-1.978743	-2.183857
H	1.583666	-2.878678	-2.742548
H	2.168641	-1.376015	-1.970497
H	0.623012	-1.375728	-2.863099
H	-0.688443	-4.783437	1.190530
C	0.000000	0.000000	0.000000
C	0.223548	0.834165	1.099446
C	0.581748	2.170912	0.776721
H	0.128089	0.477934	2.136088
C	0.638880	2.384045	-0.612546
S	0.243934	0.910282	-1.486809
C	0.863301	3.221592	1.814609
H	0.753137	2.810458	2.836676
H	0.170663	4.084559	1.726239
H	1.894637	3.622593	1.726228
H	0.884575	3.300913	-1.161575
$end

$rem
JOBTYPE		SP
EXCHANGE	HF
CORRELATION	pRIMP2
BASIS		cc-pvtz
METHOD		rimp2
AUX_BASIS	rimp2-cc-pvtz
SOLVENT_METHOD	PCM
PURECART	11111
SYMMETRY	false
MEM_TOTAL	110000
SCF_CONVERGENCE = 6
THRESH=10
$end

$solvent
dielectric 4.90
$end
--------------------------------------------------------------

             Standard Nuclear Orientation (Angstroms)
    I     Atom           X                Y                Z
 ----------------------------------------------------------------
    1      C      -0.3881810000    -3.8667250000     0.6709240000
    2      C       0.3060200000    -3.7039630000    -0.5306480000
    3      C       0.5333780000    -2.3570560000    -0.9237030000
    4      H       0.6510430000    -4.5610920000    -1.1285790000
    5      C       0.0000000000    -1.4406640000     0.0000000000
    6      S      -0.7722340000    -2.2869570000     1.3375670000
    7      C       1.2611920000    -1.9787430000    -2.1838570000
    8      H       1.5836660000    -2.8786780000    -2.7425480000
    9      H       2.1686410000    -1.3760150000    -1.9704970000
   10      H       0.6230120000    -1.3757280000    -2.8630990000
   11      H      -0.6884430000    -4.7834370000     1.1905300000
   12      C       0.0000000000     0.0000000000     0.0000000000
   13      C       0.2235480000     0.8341650000     1.0994460000
   14      C       0.5817480000     2.1709120000     0.7767210000
   15      H       0.1280890000     0.4779340000     2.1360880000
   16      C       0.6388800000     2.3840450000    -0.6125460000
   17      S       0.2439340000     0.9102820000    -1.4868090000
   18      C       0.8633010000     3.2215920000     1.8146090000
   19      H       0.7531370000     2.8104580000     2.8366760000
   20      H       0.1706630000     4.0845590000     1.7262390000
   21      H       1.8946370000     3.6225930000     1.7262280000
   22      H       0.8845750000     3.3009130000    -1.1615750000
 ----------------------------------------------------------------

   10   -1179.6802027595      5.02e-07  Convergence criterion met
 Total energy in the final basis set =    -1179.6802027595
        RIMP2         total energy =     -1181.6617780403 a.u.

                    Orbital Energies (a.u.)
 --------------------------------------------------------------

 Alpha MOs
 -- Occupied --
-91.9845 -91.9841 -11.2817 -11.2776 -11.2712 -11.2643 -11.2521 -11.2517
-11.2428 -11.2420 -11.2290 -11.2284  -8.9844  -8.9840  -6.6652  -6.6649
 -6.6647  -6.6643  -6.6641  -6.6637  -1.1810  -1.1496  -1.0419  -1.0240
 -0.9986  -0.9528  -0.9139  -0.8943  -0.7997  -0.7632  -0.7219  -0.6957
 -0.6621  -0.6159  -0.5836  -0.5790  -0.5774  -0.5696  -0.5522  -0.5334
 -0.5258  -0.5200  -0.5113  -0.4955  -0.4862  -0.4666  -0.4529  -0.3648
 -0.3423  -0.3386  -0.2723

          Ground-State Mulliken Net Atomic Charges

     Atom                 Charge (a.u.)
  ----------------------------------------
      1 C                    -0.215249
      2 C                    -0.250262
      3 C                     0.041853
      4 H                     0.184693
      5 C                    -0.030164
      6 S                     0.014512
      7 C                    -0.306591
      8 H                     0.111300
      9 H                     0.120627
     10 H                     0.110962
     11 H                     0.205503
     12 C                     0.022830
     13 C                    -0.238387
     14 C                     0.018617
     15 H                     0.182594
     16 C                    -0.237583
     17 S                     0.017158
     18 C                    -0.270502
     19 H                     0.102920
     20 H                     0.108383
     21 H                     0.108008
     22 H                     0.198779
  ----------------------------------------
  Sum of atomic charges =     0.000000

                    Cartesian Multipole Moments
 -----------------------------------------------------------------
    Charge (ESU x 10^10)
                -0.0000
    Dipole Moment (Debye)
         X       1.2971      Y       0.2648      Z       0.0411
       Tot       1.3245
    Quadrupole Moments (Debye-Ang)
        XX     -90.3460     XY       1.6481     YY     -69.8938
        XZ      -2.6661     YZ       2.8494     ZZ     -81.5807

 Total job time:  576.54s(wall), 551.31s(cpu)
        *  Thank you very much for using Q-Chem.  Have a nice day.  *
