 Q-Chem 5.4, Q-Chem, Inc., Pleasanton, CA (2021)
 Q-Chem 5.4.0 for Intel X86 EM64T Linux

User input:
--------------------------------------------------------------
$molecule
0 1
C	0.386946	-3.866725	0.671636
C	-0.306544	-3.703963	-0.530345
C	-0.533261	-2.357056	-0.923770
H	-0.651857	-4.561092	-1.128109
C	0.000000	-1.440664	0.000000
S	0.772250	-2.286957	1.337557
C	-1.260680	-1.978743	-2.184153
H	-1.583283	-2.878678	-2.742769
H	-0.622180	-1.376015	-2.863347
H	-2.168011	-1.375728	-1.971094
H	0.686807	-4.783437	1.191474
C	0.000000	0.000000	0.000000
C	0.223548	0.834165	1.099446
C	0.581748	2.170912	0.776721
H	0.128089	0.477934	2.136088
C	0.638880	2.384045	-0.612546
S	0.243934	0.910282	-1.486809
C	0.863301	3.221592	1.814609
H	0.753137	2.810458	2.836676
H	0.170663	4.084559	1.726239
H	1.894637	3.622593	1.726228
H	0.884575	3.300913	-1.161575
$end

$rem
JOBTYPE		SP
EXCHANGE	HF
CORRELATION	pRIMP2
BASIS		cc-pvtz
METHOD		rimp2
AUX_BASIS	rimp2-cc-pvtz
SOLVENT_METHOD	PCM
PURECART	11111
SYMMETRY	false
MEM_TOTAL	110000
SCF_CONVERGENCE = 6
THRESH=10
$end

$solvent
dielectric 4.90
$end
--------------------------------------------------------------

             Standard Nuclear Orientation (Angstroms)
    I     Atom           X                Y                Z
 ----------------------------------------------------------------
    1      C       0.3869460000    -3.8667250000     0.6716360000
    2      C      -0.3065440000    -3.7039630000    -0.5303450000
    3      C      -0.5332610000    -2.3570560000    -0.9237700000
    4      H      -0.6518570000    -4.5610920000    -1.1281090000
    5      C       0.0000000000    -1.4406640000     0.0000000000
    6      S       0.7722500000    -2.2869570000     1.3375570000
    7      C      -1.2606800000    -1.9787430000    -2.1841530000
    8      H      -1.5832830000    -2.8786780000    -2.7427690000
    9      H      -0.6221800000    -1.3760150000    -2.8633470000
   10      H      -2.1680110000    -1.3757280000    -1.9710940000
   11      H       0.6868070000    -4.7834370000     1.1914740000
   12      C       0.0000000000     0.0000000000     0.0000000000
   13      C       0.2235480000     0.8341650000     1.0994460000
   14      C       0.5817480000     2.1709120000     0.7767210000
   15      H       0.1280890000     0.4779340000     2.1360880000
   16      C       0.6388800000     2.3840450000    -0.6125460000
   17      S       0.2439340000     0.9102820000    -1.4868090000
   18      C       0.8633010000     3.2215920000     1.8146090000
   19      H       0.7531370000     2.8104580000     2.8366760000
   20      H       0.1706630000     4.0845590000     1.7262390000
   21      H       1.8946370000     3.6225930000     1.7262280000
   22      H       0.8845750000     3.3009130000    -1.1615750000
 ----------------------------------------------------------------

   10   -1179.6835311884      5.35e-07  Convergence criterion met
 Total energy in the final basis set =    -1179.6835311884
        RIMP2         total energy =     -1181.6638844867 a.u.

                    Orbital Energies (a.u.)
 --------------------------------------------------------------

 Alpha MOs
 -- Occupied --
-91.9852 -91.9851 -11.2818 -11.2764 -11.2718 -11.2647 -11.2524 -11.2523
-11.2429 -11.2416 -11.2301 -11.2291  -8.9850  -8.9849  -6.6659  -6.6658
 -6.6653  -6.6652  -6.6647  -6.6646  -1.1811  -1.1499  -1.0418  -1.0247
 -0.9992  -0.9522  -0.9152  -0.8939  -0.8005  -0.7635  -0.7219  -0.6946
 -0.6630  -0.6162  -0.5840  -0.5788  -0.5779  -0.5699  -0.5526  -0.5343
 -0.5251  -0.5199  -0.5097  -0.4960  -0.4883  -0.4680  -0.4545  -0.3621
 -0.3427  -0.3413  -0.2730

          Ground-State Mulliken Net Atomic Charges

     Atom                 Charge (a.u.)
  ----------------------------------------
      1 C                    -0.214281
      2 C                    -0.248888
      3 C                     0.035624
      4 H                     0.184343
      5 C                    -0.018372
      6 S                     0.015520
      7 C                    -0.308114
      8 H                     0.112520
      9 H                     0.112565
     10 H                     0.117671
     11 H                     0.205724
     12 C                     0.052895
     13 C                    -0.304667
     14 C                     0.050529
     15 H                     0.183152
     16 C                    -0.255207
     17 S                     0.031489
     18 C                    -0.270749
     19 H                     0.103065
     20 H                     0.108171
     21 H                     0.109196
     22 H                     0.197812
  ----------------------------------------
  Sum of atomic charges =     0.000000

                    Cartesian Multipole Moments
 -----------------------------------------------------------------
    Charge (ESU x 10^10)
                -0.0000
    Dipole Moment (Debye)
         X      -0.2623      Y       0.1976      Z       0.1050
       Tot       0.3448
    Quadrupole Moments (Debye-Ang)
        XX     -90.3378     XY       3.8793     YY     -69.3744
        XZ       3.2131     YZ       2.9356     ZZ     -81.5980

 Total job time:  552.61s(wall), 546.57s(cpu)
        *  Thank you very much for using Q-Chem.  Have a nice day.  *
