 Q-Chem 5.4, Q-Chem, Inc., Pleasanton, CA (2021)
 Q-Chem 5.4.0 for Intel X86 EM64T Linux

User input:
--------------------------------------------------------------
$molecule
0 1
C	-0.497696	-3.866725	-0.594240
C	0.393981	-3.703963	0.469057
C	0.685571	-2.357056	0.817136
H	0.837848	-4.561092	0.997777
C	-0.000000	-1.440664	-0.000000
S	-0.992782	-2.286957	-1.183137
C	1.620802	-1.978743	1.932056
H	2.035506	-2.878678	2.426166
H	1.109943	-1.376015	2.711806
H	2.477350	-1.375728	1.564678
H	-0.883271	-4.783437	-1.054110
C	0.000000	0.000000	0.000000
C	0.149995	0.850475	1.099446
C	0.390327	2.213354	0.776721
H	0.085947	0.487279	2.136088
C	0.428665	2.430655	-0.612546
S	0.163670	0.928078	-1.486809
C	0.579235	3.284574	1.814609
H	0.505323	2.865404	2.836676
H	-0.185980	4.083890	1.726239
H	1.571698	3.773937	1.726228
H	0.593515	3.365448	-1.161575
$end

$rem
JOBTYPE		SP
EXCHANGE	HF
CORRELATION	pRIMP2
BASIS		cc-pvtz
METHOD		rimp2
AUX_BASIS	rimp2-cc-pvtz
SOLVENT_METHOD	PCM
PURECART	11111
SYMMETRY	false
MEM_TOTAL	110000
SCF_CONVERGENCE = 6
THRESH=10
$end

$solvent
dielectric 4.90
$end
--------------------------------------------------------------

             Standard Nuclear Orientation (Angstroms)
    I     Atom           X                Y                Z
 ----------------------------------------------------------------
    1      C      -0.4976960000    -3.8667250000    -0.5942400000
    2      C       0.3939810000    -3.7039630000     0.4690570000
    3      C       0.6855710000    -2.3570560000     0.8171360000
    4      H       0.8378480000    -4.5610920000     0.9977770000
    5      C       0.0000000000    -1.4406640000     0.0000000000
    6      S      -0.9927820000    -2.2869570000    -1.1831370000
    7      C       1.6208020000    -1.9787430000     1.9320560000
    8      H       2.0355060000    -2.8786780000     2.4261660000
    9      H       1.1099430000    -1.3760150000     2.7118060000
   10      H       2.4773500000    -1.3757280000     1.5646780000
   11      H      -0.8832710000    -4.7834370000    -1.0541100000
   12      C       0.0000000000     0.0000000000     0.0000000000
   13      C       0.1499950000     0.8504750000     1.0994460000
   14      C       0.3903270000     2.2133540000     0.7767210000
   15      H       0.0859470000     0.4872790000     2.1360880000
   16      C       0.4286650000     2.4306550000    -0.6125460000
   17      S       0.1636700000     0.9280780000    -1.4868090000
   18      C       0.5792350000     3.2845740000     1.8146090000
   19      H       0.5053230000     2.8654040000     2.8366760000
   20      H      -0.1859800000     4.0838900000     1.7262390000
   21      H       1.5716980000     3.7739370000     1.7262280000
   22      H       0.5935150000     3.3654480000    -1.1615750000
 ----------------------------------------------------------------

   10   -1179.6847160363      5.21e-07  Convergence criterion met
 Total energy in the final basis set =    -1179.6847160363
        RIMP2         total energy =     -1181.6642927232 a.u.

                    Orbital Energies (a.u.)
 --------------------------------------------------------------

 Alpha MOs
 -- Occupied --
-91.9858 -91.9846 -11.2810 -11.2763 -11.2726 -11.2645 -11.2541 -11.2519
-11.2432 -11.2411 -11.2300 -11.2294  -8.9854  -8.9844  -6.6663  -6.6658
 -6.6654  -6.6652  -6.6648  -6.6642  -1.1803  -1.1500  -1.0413  -1.0254
 -0.9962  -0.9558  -0.9136  -0.8936  -0.8021  -0.7550  -0.7294  -0.6985
 -0.6621  -0.6151  -0.5872  -0.5808  -0.5704  -0.5644  -0.5519  -0.5370
 -0.5293  -0.5224  -0.5066  -0.4915  -0.4870  -0.4716  -0.4567  -0.3570
 -0.3431  -0.3402  -0.2776

          Ground-State Mulliken Net Atomic Charges

     Atom                 Charge (a.u.)
  ----------------------------------------
      1 C                    -0.214016
      2 C                    -0.248405
      3 C                     0.054161
      4 H                     0.184297
      5 C                    -0.033810
      6 S                     0.017759
      7 C                    -0.292623
      8 H                     0.113477
      9 H                     0.106647
     10 H                     0.115847
     11 H                     0.205607
     12 C                     0.006252
     13 C                    -0.263736
     14 C                     0.034661
     15 H                     0.192885
     16 C                    -0.249337
     17 S                     0.023748
     18 C                    -0.271251
     19 H                     0.102050
     20 H                     0.108824
     21 H                     0.108610
     22 H                     0.198352
  ----------------------------------------
  Sum of atomic charges =     0.000000

                    Cartesian Multipole Moments
 -----------------------------------------------------------------
    Charge (ESU x 10^10)
                -0.0000
    Dipole Moment (Debye)
         X       1.3101      Y       0.1927      Z       2.6184
       Tot       2.9342
    Quadrupole Moments (Debye-Ang)
        XX     -89.6915     XY       0.5410     YY     -68.7903
        XZ       3.4236     YZ      -0.6265     ZZ     -82.8894

 Total job time:  553.28s(wall), 549.60s(cpu)
        *  Thank you very much for using Q-Chem.  Have a nice day.  *
