 Q-Chem 5.4, Q-Chem, Inc., Pleasanton, CA (2021)
 Q-Chem 5.4.0 for Intel X86 EM64T Linux

User input:
--------------------------------------------------------------
$molecule
0 1
C	-0.671636	-3.866725	0.386946
C	0.530345	-3.703963	-0.306544
C	0.923770	-2.357056	-0.533261
H	1.128109	-4.561092	-0.651857
C	0.000000	-1.440664	0.000000
S	-1.337557	-2.286957	0.772250
C	2.184153	-1.978743	-1.260680
H	2.742769	-2.878678	-1.583283
H	2.863347	-1.376015	-0.622180
H	1.971094	-1.375728	-2.168011
H	-1.191474	-4.783437	0.686807
C	0.000000	0.000000	0.000000
C	0.431829	0.747884	1.099446
C	1.123799	1.946373	0.776721
H	0.247423	0.428497	2.136088
C	1.234147	2.137457	-0.612546
S	0.471221	0.816130	-1.486809
C	1.667694	2.888380	1.814609
H	1.454874	2.519768	2.836676
H	1.222009	3.901210	1.726239
H	2.767675	3.008788	1.726228
H	1.708773	2.959493	-1.161575
$end

$rem
JOBTYPE		SP
EXCHANGE	HF
CORRELATION	pRIMP2
BASIS		cc-pvtz
METHOD		rimp2
AUX_BASIS	rimp2-cc-pvtz
SOLVENT_METHOD	PCM
PURECART	11111
SYMMETRY	false
MEM_TOTAL	110000
SCF_CONVERGENCE = 6
THRESH=10
$end

$solvent
dielectric 4.90
$end
--------------------------------------------------------------

             Standard Nuclear Orientation (Angstroms)
    I     Atom           X                Y                Z
 ----------------------------------------------------------------
    1      C      -0.6716360000    -3.8667250000     0.3869460000
    2      C       0.5303450000    -3.7039630000    -0.3065440000
    3      C       0.9237700000    -2.3570560000    -0.5332610000
    4      H       1.1281090000    -4.5610920000    -0.6518570000
    5      C       0.0000000000    -1.4406640000     0.0000000000
    6      S      -1.3375570000    -2.2869570000     0.7722500000
    7      C       2.1841530000    -1.9787430000    -1.2606800000
    8      H       2.7427690000    -2.8786780000    -1.5832830000
    9      H       2.8633470000    -1.3760150000    -0.6221800000
   10      H       1.9710940000    -1.3757280000    -2.1680110000
   11      H      -1.1914740000    -4.7834370000     0.6868070000
   12      C       0.0000000000     0.0000000000     0.0000000000
   13      C       0.4318290000     0.7478840000     1.0994460000
   14      C       1.1237990000     1.9463730000     0.7767210000
   15      H       0.2474230000     0.4284970000     2.1360880000
   16      C       1.2341470000     2.1374570000    -0.6125460000
   17      S       0.4712210000     0.8161300000    -1.4868090000
   18      C       1.6676940000     2.8883800000     1.8146090000
   19      H       1.4548740000     2.5197680000     2.8366760000
   20      H       1.2220090000     3.9012100000     1.7262390000
   21      H       2.7676750000     3.0087880000     1.7262280000
   22      H       1.7087730000     2.9594930000    -1.1615750000
 ----------------------------------------------------------------

   10   -1179.6661194930      5.77e-07  Convergence criterion met
 Total energy in the final basis set =    -1179.6661194930
        RIMP2         total energy =     -1181.6508250371 a.u.

                    Orbital Energies (a.u.)
 --------------------------------------------------------------

 Alpha MOs
 -- Occupied --
-91.9843 -91.9812 -11.2751 -11.2734 -11.2712 -11.2676 -11.2521 -11.2486
-11.2485 -11.2407 -11.2298 -11.2254  -8.9842  -8.9810  -6.6650  -6.6644
 -6.6639  -6.6619  -6.6613  -6.6608  -1.1809  -1.1486  -1.0420  -1.0201
 -0.9984  -0.9534  -0.9122  -0.8923  -0.7979  -0.7575  -0.7285  -0.6952
 -0.6595  -0.6168  -0.5816  -0.5794  -0.5741  -0.5695  -0.5508  -0.5324
 -0.5276  -0.5200  -0.5115  -0.4925  -0.4777  -0.4652  -0.4556  -0.3518
 -0.3403  -0.3302  -0.2858

          Ground-State Mulliken Net Atomic Charges

     Atom                 Charge (a.u.)
  ----------------------------------------
      1 C                    -0.218128
      2 C                    -0.252764
      3 C                     0.053293
      4 H                     0.183738
      5 C                    -0.021791
      6 S                     0.014703
      7 C                    -0.290330
      8 H                     0.108223
      9 H                     0.114182
     10 H                     0.114361
     11 H                     0.202987
     12 C                    -0.057636
     13 C                    -0.205483
     14 C                     0.014392
     15 H                     0.188040
     16 C                    -0.219774
     17 S                     0.024096
     18 C                    -0.269056
     19 H                     0.103107
     20 H                     0.108024
     21 H                     0.107178
     22 H                     0.198637
  ----------------------------------------
  Sum of atomic charges =     0.000000

                    Cartesian Multipole Moments
 -----------------------------------------------------------------
    Charge (ESU x 10^10)
                -0.0000
    Dipole Moment (Debye)
         X       2.4841      Y       0.6738      Z       0.6772
       Tot       2.6614
    Quadrupole Moments (Debye-Ang)
        XX     -85.2702     XY       3.1119     YY     -72.8122
        XZ      -2.3572     YZ       1.9651     ZZ     -84.7533

 Total job time:  563.83s(wall), 560.38s(cpu)
        *  Thank you very much for using Q-Chem.  Have a nice day.  *
