 Q-Chem 5.4, Q-Chem, Inc., Pleasanton, CA (2021)
 Q-Chem 5.4.0 for Intel X86 EM64T Linux

User input:
--------------------------------------------------------------
$molecule
0 1
C	0.135301	-3.866725	-0.763228
C	-0.106073	-3.703963	0.603311
C	-0.185286	-2.357056	1.050423
H	-0.225783	-4.561092	1.283188
C	-0.000000	-1.440664	-0.000000
S	0.268187	-2.286957	-1.521021
C	-0.438209	-1.978743	2.483507
H	-0.550153	-2.878678	3.118798
H	-1.363906	-1.376015	2.593381
H	0.393798	-1.375728	2.903516
H	0.239740	-4.783437	-1.354194
C	0.000000	0.000000	0.000000
C	0.555137	0.661535	1.099446
C	1.444710	1.721658	0.776721
H	0.318072	0.379023	2.136088
C	1.586563	1.890676	-0.612546
S	0.605781	0.721904	-1.486809
C	2.143920	2.554907	1.814609
H	1.870325	2.228851	2.836676
H	1.880882	3.629742	1.726239
H	3.248098	2.482476	1.726228
H	2.196723	2.617806	-1.161575
$end

$rem
JOBTYPE		SP
EXCHANGE	HF
CORRELATION	pRIMP2
BASIS		cc-pvtz
METHOD		rimp2
AUX_BASIS	rimp2-cc-pvtz
SOLVENT_METHOD	PCM
PURECART	11111
SYMMETRY	false
MEM_TOTAL	110000
SCF_CONVERGENCE = 6
THRESH=10
$end

$solvent
dielectric 4.90
$end
--------------------------------------------------------------

             Standard Nuclear Orientation (Angstroms)
    I     Atom           X                Y                Z
 ----------------------------------------------------------------
    1      C       0.1353010000    -3.8667250000    -0.7632280000
    2      C      -0.1060730000    -3.7039630000     0.6033110000
    3      C      -0.1852860000    -2.3570560000     1.0504230000
    4      H      -0.2257830000    -4.5610920000     1.2831880000
    5      C       0.0000000000    -1.4406640000     0.0000000000
    6      S       0.2681870000    -2.2869570000    -1.5210210000
    7      C      -0.4382090000    -1.9787430000     2.4835070000
    8      H      -0.5501530000    -2.8786780000     3.1187980000
    9      H      -1.3639060000    -1.3760150000     2.5933810000
   10      H       0.3937980000    -1.3757280000     2.9035160000
   11      H       0.2397400000    -4.7834370000    -1.3541940000
   12      C       0.0000000000     0.0000000000     0.0000000000
   13      C       0.5551370000     0.6615350000     1.0994460000
   14      C       1.4447100000     1.7216580000     0.7767210000
   15      H       0.3180720000     0.3790230000     2.1360880000
   16      C       1.5865630000     1.8906760000    -0.6125460000
   17      S       0.6057810000     0.7219040000    -1.4868090000
   18      C       2.1439200000     2.5549070000     1.8146090000
   19      H       1.8703250000     2.2288510000     2.8366760000
   20      H       1.8808820000     3.6297420000     1.7262390000
   21      H       3.2480980000     2.4824760000     1.7262280000
   22      H       2.1967230000     2.6178060000    -1.1615750000
 ----------------------------------------------------------------

   10   -1179.6505533024      7.67e-07  Convergence criterion met
 Total energy in the final basis set =    -1179.6505533024
        RIMP2         total energy =     -1181.6393040325 a.u.

                    Orbital Energies (a.u.)
 --------------------------------------------------------------

 Alpha MOs
 -- Occupied --
-91.9853 -91.9796 -11.2788 -11.2774 -11.2735 -11.2623 -11.2546 -11.2522
-11.2423 -11.2400 -11.2310 -11.2291  -8.9857  -8.9798  -6.6666  -6.6659
 -6.6654  -6.6607  -6.6601  -6.6595  -1.1860  -1.1482  -1.0450  -1.0248
 -0.9963  -0.9560  -0.9119  -0.8946  -0.8017  -0.7558  -0.7292  -0.7009
 -0.6576  -0.6150  -0.5943  -0.5823  -0.5708  -0.5614  -0.5512  -0.5415
 -0.5319  -0.5211  -0.5053  -0.4890  -0.4832  -0.4725  -0.4460  -0.3714
 -0.3483  -0.3329  -0.2643

          Ground-State Mulliken Net Atomic Charges

     Atom                 Charge (a.u.)
  ----------------------------------------
      1 C                    -0.240063
      2 C                    -0.243563
      3 C                     0.038311
      4 H                     0.182429
      5 C                    -0.015772
      6 S                     0.004481
      7 C                    -0.310345
      8 H                     0.114969
      9 H                     0.112597
     10 H                     0.099105
     11 H                     0.203748
     12 C                    -0.024874
     13 C                    -0.190969
     14 C                     0.010203
     15 H                     0.197210
     16 C                    -0.210270
     17 S                     0.019116
     18 C                    -0.268283
     19 H                     0.102000
     20 H                     0.109122
     21 H                     0.108147
     22 H                     0.202702
  ----------------------------------------
  Sum of atomic charges =     0.000000

                    Cartesian Multipole Moments
 -----------------------------------------------------------------
    Charge (ESU x 10^10)
                -0.0000
    Dipole Moment (Debye)
         X       1.4619      Y       1.0343      Z       2.9329
       Tot       3.4363
    Quadrupole Moments (Debye-Ang)
        XX     -87.4259     XY       6.3539     YY     -75.3961
        XZ      -0.5437     YZ      -1.5829     ZZ     -80.2987

 Total job time:  583.57s(wall), 578.94s(cpu)
        *  Thank you very much for using Q-Chem.  Have a nice day.  *
