 Q-Chem 5.4, Q-Chem, Inc., Pleasanton, CA (2021)
 Q-Chem 5.4.0 for Intel X86 EM64T Linux

User input:
--------------------------------------------------------------
$molecule
0 1
C	0.264439	-3.866725	0.728625
C	-0.209794	-3.703963	-0.575519
C	-0.364749	-2.357056	-1.002336
H	-0.446060	-4.561092	-1.224165
C	-0.000000	-1.440664	-0.000000
S	0.528253	-2.286957	1.451336
C	-0.862253	-1.978743	-2.369885
H	-1.082953	-2.878678	-2.976034
H	-0.115513	-1.376015	-2.927887
H	-1.792797	-1.375728	-2.317620
H	0.469476	-4.783437	1.292636
C	0.000000	0.000000	0.000000
C	0.555137	0.661535	1.099446
C	1.444710	1.721658	0.776721
H	0.318072	0.379023	2.136088
C	1.586563	1.890676	-0.612546
S	0.605781	0.721904	-1.486809
C	2.143920	2.554907	1.814609
H	1.870325	2.228851	2.836676
H	1.880882	3.629742	1.726239
H	3.248098	2.482476	1.726228
H	2.196723	2.617806	-1.161575
$end

$rem
JOBTYPE		SP
EXCHANGE	HF
CORRELATION	pRIMP2
BASIS		cc-pvtz
METHOD		rimp2
AUX_BASIS	rimp2-cc-pvtz
SOLVENT_METHOD	PCM
PURECART	11111
SYMMETRY	false
MEM_TOTAL	110000
SCF_CONVERGENCE = 6
THRESH=10
$end

$solvent
dielectric 4.90
$end
--------------------------------------------------------------

             Standard Nuclear Orientation (Angstroms)
    I     Atom           X                Y                Z
 ----------------------------------------------------------------
    1      C       0.2644390000    -3.8667250000     0.7286250000
    2      C      -0.2097940000    -3.7039630000    -0.5755190000
    3      C      -0.3647490000    -2.3570560000    -1.0023360000
    4      H      -0.4460600000    -4.5610920000    -1.2241650000
    5      C       0.0000000000    -1.4406640000     0.0000000000
    6      S       0.5282530000    -2.2869570000     1.4513360000
    7      C      -0.8622530000    -1.9787430000    -2.3698850000
    8      H      -1.0829530000    -2.8786780000    -2.9760340000
    9      H      -0.1155130000    -1.3760150000    -2.9278870000
   10      H      -1.7927970000    -1.3757280000    -2.3176200000
   11      H       0.4694760000    -4.7834370000     1.2926360000
   12      C       0.0000000000     0.0000000000     0.0000000000
   13      C       0.5551370000     0.6615350000     1.0994460000
   14      C       1.4447100000     1.7216580000     0.7767210000
   15      H       0.3180720000     0.3790230000     2.1360880000
   16      C       1.5865630000     1.8906760000    -0.6125460000
   17      S       0.6057810000     0.7219040000    -1.4868090000
   18      C       2.1439200000     2.5549070000     1.8146090000
   19      H       1.8703250000     2.2288510000     2.8366760000
   20      H       1.8808820000     3.6297420000     1.7262390000
   21      H       3.2480980000     2.4824760000     1.7262280000
   22      H       2.1967230000     2.6178060000    -1.1615750000
 ----------------------------------------------------------------

   10   -1179.6548590250      6.34e-07  Convergence criterion met
 Total energy in the final basis set =    -1179.6548590250
        RIMP2         total energy =     -1181.6431131303 a.u.

                    Orbital Energies (a.u.)
 --------------------------------------------------------------

 Alpha MOs
 -- Occupied --
-91.9850 -91.9806 -11.2768 -11.2754 -11.2728 -11.2648 -11.2545 -11.2507
-11.2440 -11.2403 -11.2303 -11.2277  -8.9852  -8.9807  -6.6660  -6.6654
 -6.6648  -6.6616  -6.6610  -6.6604  -1.1853  -1.1483  -1.0442  -1.0231
 -1.0005  -0.9503  -0.9144  -0.8938  -0.7983  -0.7653  -0.7231  -0.6928
 -0.6598  -0.6178  -0.5852  -0.5812  -0.5781  -0.5702  -0.5517  -0.5347
 -0.5259  -0.5184  -0.5103  -0.4956  -0.4796  -0.4670  -0.4503  -0.3646
 -0.3455  -0.3382  -0.2668

          Ground-State Mulliken Net Atomic Charges

     Atom                 Charge (a.u.)
  ----------------------------------------
      1 C                    -0.231648
      2 C                    -0.244856
      3 C                     0.026756
      4 H                     0.182961
      5 C                    -0.005595
      6 S                     0.002654
      7 C                    -0.312562
      8 H                     0.112695
      9 H                     0.110401
     10 H                     0.116289
     11 H                     0.203611
     12 C                    -0.004971
     13 C                    -0.252780
     14 C                     0.040832
     15 H                     0.186602
     16 C                    -0.228817
     17 S                     0.043871
     18 C                    -0.266531
     19 H                     0.103480
     20 H                     0.108711
     21 H                     0.108641
     22 H                     0.200256
  ----------------------------------------
  Sum of atomic charges =     0.000000

                    Cartesian Multipole Moments
 -----------------------------------------------------------------
    Charge (ESU x 10^10)
                -0.0000
    Dipole Moment (Debye)
         X       1.1245      Y       0.7973      Z       0.0596
       Tot       1.3798
    Quadrupole Moments (Debye-Ang)
        XX     -87.0115     XY       6.6886     YY     -74.8226
        XZ       2.5737     YZ       3.0273     ZZ     -80.6630

 Total job time:  571.68s(wall), 567.40s(cpu)
        *  Thank you very much for using Q-Chem.  Have a nice day.  *
