 Q-Chem 5.4, Q-Chem, Inc., Pleasanton, CA (2021)
 Q-Chem 5.4.0 for Intel X86 EM64T Linux

User input:
--------------------------------------------------------------
$molecule
0 1
C	0.133897	-3.866725	0.763475
C	-0.106669	-3.703963	-0.603206
C	-0.185154	-2.357056	-1.050446
H	-0.226709	-4.561092	-1.283024
C	0.000000	-1.440664	0.000000
S	0.268206	-2.286957	1.521018
C	-0.437628	-1.978743	-2.483610
H	-0.549717	-2.878678	-3.118875
H	0.394664	-1.376015	-2.903464
H	-1.363110	-1.375728	-2.593726
H	0.237880	-4.783437	1.354522
C	0.000000	0.000000	0.000000
C	0.661577	0.555087	1.099446
C	1.721724	1.444630	0.776721
H	0.379056	0.318032	2.136088
C	1.890772	1.586449	-0.612546
S	0.721935	0.605744	-1.486809
C	2.555004	2.143805	1.814609
H	2.228946	1.870211	2.836676
H	2.482605	3.247987	1.726239
H	3.629830	1.880735	1.726228
H	2.617927	2.196579	-1.161575
$end

$rem
JOBTYPE		SP
EXCHANGE	HF
CORRELATION	pRIMP2
BASIS		cc-pvtz
METHOD		rimp2
AUX_BASIS	rimp2-cc-pvtz
SOLVENT_METHOD	PCM
PURECART	11111
SYMMETRY	false
MEM_TOTAL	110000
SCF_CONVERGENCE = 6
THRESH=10
$end

$solvent
dielectric 4.90
$end
--------------------------------------------------------------

             Standard Nuclear Orientation (Angstroms)
    I     Atom           X                Y                Z
 ----------------------------------------------------------------
    1      C       0.1338970000    -3.8667250000     0.7634750000
    2      C      -0.1066690000    -3.7039630000    -0.6032060000
    3      C      -0.1851540000    -2.3570560000    -1.0504460000
    4      H      -0.2267090000    -4.5610920000    -1.2830240000
    5      C       0.0000000000    -1.4406640000     0.0000000000
    6      S       0.2682060000    -2.2869570000     1.5210180000
    7      C      -0.4376280000    -1.9787430000    -2.4836100000
    8      H      -0.5497170000    -2.8786780000    -3.1188750000
    9      H       0.3946640000    -1.3760150000    -2.9034640000
   10      H      -1.3631100000    -1.3757280000    -2.5937260000
   11      H       0.2378800000    -4.7834370000     1.3545220000
   12      C       0.0000000000     0.0000000000     0.0000000000
   13      C       0.6615770000     0.5550870000     1.0994460000
   14      C       1.7217240000     1.4446300000     0.7767210000
   15      H       0.3790560000     0.3180320000     2.1360880000
   16      C       1.8907720000     1.5864490000    -0.6125460000
   17      S       0.7219350000     0.6057440000    -1.4868090000
   18      C       2.5550040000     2.1438050000     1.8146090000
   19      H       2.2289460000     1.8702110000     2.8366760000
   20      H       2.4826050000     3.2479870000     1.7262390000
   21      H       3.6298300000     1.8807350000     1.7262280000
   22      H       2.6179270000     2.1965790000    -1.1615750000
 ----------------------------------------------------------------

   10   -1179.6318695071      9.65e-07  Convergence criterion met
 Total energy in the final basis set =    -1179.6318695071
        RIMP2         total energy =     -1181.6255588021 a.u.

                    Orbital Energies (a.u.)
 --------------------------------------------------------------

 Alpha MOs
 -- Occupied --
-91.9844 -91.9771 -11.2827 -11.2784 -11.2666 -11.2600 -11.2579 -11.2552
-11.2391 -11.2380 -11.2310 -11.2246  -8.9850  -8.9774  -6.6657  -6.6650
 -6.6645  -6.6584  -6.6578  -6.6571  -1.1893  -1.1467  -1.0461  -1.0229
 -1.0006  -0.9492  -0.9134  -0.8942  -0.7970  -0.7671  -0.7237  -0.6923
 -0.6574  -0.6192  -0.5881  -0.5832  -0.5771  -0.5701  -0.5512  -0.5347
 -0.5267  -0.5177  -0.5111  -0.4949  -0.4743  -0.4640  -0.4457  -0.3677
 -0.3457  -0.3357  -0.2628

          Ground-State Mulliken Net Atomic Charges

     Atom                 Charge (a.u.)
  ----------------------------------------
      1 C                    -0.240122
      2 C                    -0.245353
      3 C                     0.025965
      4 H                     0.182267
      5 C                    -0.008171
      6 S                    -0.013037
      7 C                    -0.312666
      8 H                     0.110256
      9 H                     0.111640
     10 H                     0.114649
     11 H                     0.201964
     12 C                    -0.049031
     13 C                    -0.184557
     14 C                     0.016346
     15 H                     0.187360
     16 C                    -0.204657
     17 S                     0.050415
     18 C                    -0.265438
     19 H                     0.103704
     20 H                     0.108611
     21 H                     0.107825
     22 H                     0.202030
  ----------------------------------------
  Sum of atomic charges =     0.000000

                    Cartesian Multipole Moments
 -----------------------------------------------------------------
    Charge (ESU x 10^10)
                -0.0000
    Dipole Moment (Debye)
         X       2.0367      Y       1.1472      Z      -0.0284
       Tot       2.3377
    Quadrupole Moments (Debye-Ang)
        XX     -85.1185     XY       6.5285     YY     -78.3184
        XZ       1.4302     YZ       3.1021     ZZ     -80.0445

 Total job time:  579.60s(wall), 576.29s(cpu)
        *  Thank you very much for using Q-Chem.  Have a nice day.  *
