 Q-Chem 5.4, Q-Chem, Inc., Pleasanton, CA (2021)
 Q-Chem 5.4.0 for Intel X86 EM64T Linux

User input:
--------------------------------------------------------------
$molecule
0 1
C	0.763228	-3.866725	0.135301
C	-0.603311	-3.703963	-0.106073
C	-1.050423	-2.357056	-0.185286
H	-1.283188	-4.561092	-0.225783
C	0.000000	-1.440664	0.000000
S	1.521021	-2.286957	0.268187
C	-2.483507	-1.978743	-0.438209
H	-3.118798	-2.878678	-0.550153
H	-2.593381	-1.376015	-1.363906
H	-2.903516	-1.375728	0.393798
H	1.354194	-4.783437	0.239740
C	0.000000	0.000000	0.000000
C	0.223548	0.834165	1.099446
C	0.581748	2.170912	0.776721
H	0.128089	0.477934	2.136088
C	0.638880	2.384045	-0.612546
S	0.243934	0.910282	-1.486809
C	0.863301	3.221592	1.814609
H	0.753137	2.810458	2.836676
H	0.170663	4.084559	1.726239
H	1.894637	3.622593	1.726228
H	0.884575	3.300913	-1.161575
$end

$rem
JOBTYPE		SP
EXCHANGE	HF
CORRELATION	pRIMP2
BASIS		cc-pvtz
METHOD		rimp2
AUX_BASIS	rimp2-cc-pvtz
SOLVENT_METHOD	PCM
PURECART	11111
SYMMETRY	false
MEM_TOTAL	110000
SCF_CONVERGENCE = 6
THRESH=10
$end

$solvent
dielectric 4.90
$end
--------------------------------------------------------------

             Standard Nuclear Orientation (Angstroms)
    I     Atom           X                Y                Z
 ----------------------------------------------------------------
    1      C       0.7632280000    -3.8667250000     0.1353010000
    2      C      -0.6033110000    -3.7039630000    -0.1060730000
    3      C      -1.0504230000    -2.3570560000    -0.1852860000
    4      H      -1.2831880000    -4.5610920000    -0.2257830000
    5      C       0.0000000000    -1.4406640000     0.0000000000
    6      S       1.5210210000    -2.2869570000     0.2681870000
    7      C      -2.4835070000    -1.9787430000    -0.4382090000
    8      H      -3.1187980000    -2.8786780000    -0.5501530000
    9      H      -2.5933810000    -1.3760150000    -1.3639060000
   10      H      -2.9035160000    -1.3757280000     0.3937980000
   11      H       1.3541940000    -4.7834370000     0.2397400000
   12      C       0.0000000000     0.0000000000     0.0000000000
   13      C       0.2235480000     0.8341650000     1.0994460000
   14      C       0.5817480000     2.1709120000     0.7767210000
   15      H       0.1280890000     0.4779340000     2.1360880000
   16      C       0.6388800000     2.3840450000    -0.6125460000
   17      S       0.2439340000     0.9102820000    -1.4868090000
   18      C       0.8633010000     3.2215920000     1.8146090000
   19      H       0.7531370000     2.8104580000     2.8366760000
   20      H       0.1706630000     4.0845590000     1.7262390000
   21      H       1.8946370000     3.6225930000     1.7262280000
   22      H       0.8845750000     3.3009130000    -1.1615750000
 ----------------------------------------------------------------

   10   -1179.6819524447      5.01e-07  Convergence criterion met
 Total energy in the final basis set =    -1179.6819524447
        RIMP2         total energy =     -1181.6604219981 a.u.

                    Orbital Energies (a.u.)
 --------------------------------------------------------------

 Alpha MOs
 -- Occupied --
-91.9848 -91.9843 -11.2770 -11.2721 -11.2720 -11.2660 -11.2529 -11.2508
-11.2433 -11.2413 -11.2292 -11.2289  -8.9844  -8.9839  -6.6653  -6.6648
 -6.6647  -6.6642  -6.6641  -6.6636  -1.1787  -1.1493  -1.0400  -1.0228
 -0.9974  -0.9532  -0.9136  -0.8920  -0.8003  -0.7548  -0.7295  -0.6938
 -0.6621  -0.6165  -0.5826  -0.5790  -0.5713  -0.5692  -0.5517  -0.5323
 -0.5286  -0.5193  -0.5076  -0.4923  -0.4861  -0.4645  -0.4625  -0.3472
 -0.3369  -0.3208  -0.3035

          Ground-State Mulliken Net Atomic Charges

     Atom                 Charge (a.u.)
  ----------------------------------------
      1 C                    -0.207054
      2 C                    -0.251790
      3 C                     0.052460
      4 H                     0.183496
      5 C                    -0.056456
      6 S                     0.026261
      7 C                    -0.282987
      8 H                     0.106571
      9 H                     0.109853
     10 H                     0.110330
     11 H                     0.204399
     12 C                     0.002200
     13 C                    -0.247581
     14 C                     0.029789
     15 H                     0.186247
     16 C                    -0.238276
     17 S                     0.026487
     18 C                    -0.270622
     19 H                     0.102733
     20 H                     0.107755
     21 H                     0.108273
     22 H                     0.197913
  ----------------------------------------
  Sum of atomic charges =     0.000000

                    Cartesian Multipole Moments
 -----------------------------------------------------------------
    Charge (ESU x 10^10)
                -0.0000
    Dipole Moment (Debye)
         X      -0.9560      Y       0.2704      Z       1.1896
       Tot       1.5499
    Quadrupole Moments (Debye-Ang)
        XX     -85.5958     XY       4.8443     YY     -69.5135
        XZ       1.4165     YZ       1.3580     ZZ     -86.4898

 Total job time:  549.75s(wall), 545.87s(cpu)
        *  Thank you very much for using Q-Chem.  Have a nice day.  *
