 Q-Chem 5.4, Q-Chem, Inc., Pleasanton, CA (2021)
 Q-Chem 5.4.0 for Intel X86 EM64T Linux

User input:
--------------------------------------------------------------
$molecule
0 1
C	-0.728138	-3.866725	-0.265779
C	0.575726	-3.703963	0.209225
C	1.002290	-2.357056	0.364875
H	1.224486	-4.561092	0.445176
C	0.000000	-1.440664	0.000000
S	-1.451343	-2.286957	-0.528236
C	2.369683	-1.978743	0.862808
H	2.975883	-2.878678	1.083368
H	2.317142	-1.376015	1.793522
H	2.927787	-1.375728	0.116375
H	-1.291990	-4.783437	-0.471251
C	0.000000	0.000000	0.000000
C	0.661577	0.555087	1.099446
C	1.721724	1.444630	0.776721
H	0.379056	0.318032	2.136088
C	1.890772	1.586449	-0.612546
S	0.721935	0.605744	-1.486809
C	2.555004	2.143805	1.814609
H	2.228946	1.870211	2.836676
H	2.482605	3.247987	1.726239
H	3.629830	1.880735	1.726228
H	2.617927	2.196579	-1.161575
$end

$rem
JOBTYPE		SP
EXCHANGE	HF
CORRELATION	pRIMP2
BASIS		cc-pvtz
METHOD		rimp2
AUX_BASIS	rimp2-cc-pvtz
SOLVENT_METHOD	PCM
PURECART	11111
SYMMETRY	false
MEM_TOTAL	110000
SCF_CONVERGENCE = 6
THRESH=10
$end

$solvent
dielectric 4.90
$end
--------------------------------------------------------------

             Standard Nuclear Orientation (Angstroms)
    I     Atom           X                Y                Z
 ----------------------------------------------------------------
    1      C      -0.7281380000    -3.8667250000    -0.2657790000
    2      C       0.5757260000    -3.7039630000     0.2092250000
    3      C       1.0022900000    -2.3570560000     0.3648750000
    4      H       1.2244860000    -4.5610920000     0.4451760000
    5      C       0.0000000000    -1.4406640000     0.0000000000
    6      S      -1.4513430000    -2.2869570000    -0.5282360000
    7      C       2.3696830000    -1.9787430000     0.8628080000
    8      H       2.9758830000    -2.8786780000     1.0833680000
    9      H       2.3171420000    -1.3760150000     1.7935220000
   10      H       2.9277870000    -1.3757280000     0.1163750000
   11      H      -1.2919900000    -4.7834370000    -0.4712510000
   12      C       0.0000000000     0.0000000000     0.0000000000
   13      C       0.6615770000     0.5550870000     1.0994460000
   14      C       1.7217240000     1.4446300000     0.7767210000
   15      H       0.3790560000     0.3180320000     2.1360880000
   16      C       1.8907720000     1.5864490000    -0.6125460000
   17      S       0.7219350000     0.6057440000    -1.4868090000
   18      C       2.5550040000     2.1438050000     1.8146090000
   19      H       2.2289460000     1.8702110000     2.8366760000
   20      H       2.4826050000     3.2479870000     1.7262390000
   21      H       3.6298300000     1.8807350000     1.7262280000
   22      H       2.6179270000     2.1965790000    -1.1615750000
 ----------------------------------------------------------------

   10   -1179.6376028819      9.46e-07  Convergence criterion met
 Total energy in the final basis set =    -1179.6376028819
        RIMP2         total energy =     -1181.6299459489 a.u.

                    Orbital Energies (a.u.)
 --------------------------------------------------------------

 Alpha MOs
 -- Occupied --
-91.9835 -91.9755 -11.2824 -11.2726 -11.2648 -11.2586 -11.2574 -11.2524
-11.2453 -11.2384 -11.2312 -11.2265  -8.9837  -8.9757  -6.6645  -6.6637
 -6.6633  -6.6566  -6.6560  -6.6554  -1.1856  -1.1466  -1.0438  -1.0196
 -0.9984  -0.9528  -0.9131  -0.8905  -0.7958  -0.7502  -0.7385  -0.6962
 -0.6564  -0.6185  -0.5860  -0.5816  -0.5710  -0.5671  -0.5496  -0.5350
 -0.5257  -0.5238  -0.5115  -0.4882  -0.4706  -0.4641  -0.4518  -0.3476
 -0.3381  -0.3268  -0.2898

          Ground-State Mulliken Net Atomic Charges

     Atom                 Charge (a.u.)
  ----------------------------------------
      1 C                    -0.218973
      2 C                    -0.258550
      3 C                     0.051294
      4 H                     0.182786
      5 C                    -0.004228
      6 S                     0.003846
      7 C                    -0.308511
      8 H                     0.117357
      9 H                     0.110396
     10 H                     0.115552
     11 H                     0.201021
     12 C                    -0.113783
     13 C                    -0.195935
     14 C                     0.028754
     15 H                     0.195656
     16 C                    -0.201638
     17 S                     0.039600
     18 C                    -0.271057
     19 H                     0.103917
     20 H                     0.114065
     21 H                     0.106577
     22 H                     0.201855
  ----------------------------------------
  Sum of atomic charges =     0.000000

                    Cartesian Multipole Moments
 -----------------------------------------------------------------
    Charge (ESU x 10^10)
                -0.0000
    Dipole Moment (Debye)
         X       3.7180      Y       0.7796      Z       2.1375
       Tot       4.3589
    Quadrupole Moments (Debye-Ang)
        XX     -80.2158     XY       3.8105     YY     -77.2321
        XZ       2.4614     YZ      -0.2146     ZZ     -85.4747

 Total job time:  610.51s(wall), 606.48s(cpu)
        *  Thank you very much for using Q-Chem.  Have a nice day.  *
