 Q-Chem 5.4, Q-Chem, Inc., Pleasanton, CA (2021)
 Q-Chem 5.4.0 for Intel X86 EM64T Linux

User input:
--------------------------------------------------------------
$molecule
0 1
C	-0.671636	-3.866725	0.386946
C	0.530345	-3.703963	-0.306544
C	0.923770	-2.357056	-0.533261
H	1.128109	-4.561092	-0.651857
C	0.000000	-1.440664	0.000000
S	-1.337557	-2.286957	0.772250
C	2.184153	-1.978743	-1.260680
H	2.742769	-2.878678	-1.583283
H	2.863347	-1.376015	-0.622180
H	1.971094	-1.375728	-2.168011
H	-1.191474	-4.783437	0.686807
C	0.000000	0.000000	0.000000
C	0.295399	0.811508	1.099446
C	0.768742	2.111949	0.776721
H	0.169256	0.464952	2.136088
C	0.844232	2.319291	-0.612546
S	0.322342	0.885558	-1.486809
C	1.140796	3.134091	1.814609
H	0.995218	2.734123	2.836676
H	0.526006	4.054142	1.726239
H	2.203157	3.443680	1.726228
H	1.168902	3.211257	-1.161575
$end

$rem
JOBTYPE		SP
EXCHANGE	HF
CORRELATION	pRIMP2
BASIS		cc-pvtz
METHOD		rimp2
AUX_BASIS	rimp2-cc-pvtz
SOLVENT_METHOD	PCM
PURECART	11111
SYMMETRY	false
MEM_TOTAL	110000
SCF_CONVERGENCE = 6
THRESH=10
$end

$solvent
dielectric 4.90
$end
--------------------------------------------------------------

             Standard Nuclear Orientation (Angstroms)
    I     Atom           X                Y                Z
 ----------------------------------------------------------------
    1      C      -0.6716360000    -3.8667250000     0.3869460000
    2      C       0.5303450000    -3.7039630000    -0.3065440000
    3      C       0.9237700000    -2.3570560000    -0.5332610000
    4      H       1.1281090000    -4.5610920000    -0.6518570000
    5      C       0.0000000000    -1.4406640000     0.0000000000
    6      S      -1.3375570000    -2.2869570000     0.7722500000
    7      C       2.1841530000    -1.9787430000    -1.2606800000
    8      H       2.7427690000    -2.8786780000    -1.5832830000
    9      H       2.8633470000    -1.3760150000    -0.6221800000
   10      H       1.9710940000    -1.3757280000    -2.1680110000
   11      H      -1.1914740000    -4.7834370000     0.6868070000
   12      C       0.0000000000     0.0000000000     0.0000000000
   13      C       0.2953990000     0.8115080000     1.0994460000
   14      C       0.7687420000     2.1119490000     0.7767210000
   15      H       0.1692560000     0.4649520000     2.1360880000
   16      C       0.8442320000     2.3192910000    -0.6125460000
   17      S       0.3223420000     0.8855580000    -1.4868090000
   18      C       1.1407960000     3.1340910000     1.8146090000
   19      H       0.9952180000     2.7341230000     2.8366760000
   20      H       0.5260060000     4.0541420000     1.7262390000
   21      H       2.2031570000     3.4436800000     1.7262280000
   22      H       1.1689020000     3.2112570000    -1.1615750000
 ----------------------------------------------------------------

   10   -1179.6772073711      5.12e-07  Convergence criterion met
 Total energy in the final basis set =    -1179.6772073711
        RIMP2         total energy =     -1181.6585761105 a.u.

                    Orbital Energies (a.u.)
 --------------------------------------------------------------

 Alpha MOs
 -- Occupied --
-91.9849 -91.9832 -11.2774 -11.2748 -11.2699 -11.2675 -11.2516 -11.2513
-11.2451 -11.2416 -11.2293 -11.2271  -8.9846  -8.9829  -6.6655  -6.6649
 -6.6643  -6.6638  -6.6632  -6.6626  -1.1798  -1.1493  -1.0412  -1.0215
 -0.9982  -0.9535  -0.9131  -0.8925  -0.7992  -0.7579  -0.7274  -0.6952
 -0.6610  -0.6164  -0.5819  -0.5784  -0.5741  -0.5697  -0.5515  -0.5321
 -0.5279  -0.5196  -0.5106  -0.4930  -0.4828  -0.4657  -0.4576  -0.3500
 -0.3416  -0.3317  -0.2873

          Ground-State Mulliken Net Atomic Charges

     Atom                 Charge (a.u.)
  ----------------------------------------
      1 C                    -0.217062
      2 C                    -0.250839
      3 C                     0.051759
      4 H                     0.184042
      5 C                    -0.027067
      6 S                     0.021489
      7 C                    -0.288041
      8 H                     0.108675
      9 H                     0.113979
     10 H                     0.113005
     11 H                     0.203897
     12 C                    -0.036681
     13 C                    -0.225237
     14 C                     0.019045
     15 H                     0.187938
     16 C                    -0.229568
     17 S                     0.023740
     18 C                    -0.270086
     19 H                     0.102975
     20 H                     0.108209
     21 H                     0.107657
     22 H                     0.198170
  ----------------------------------------
  Sum of atomic charges =     0.000000

                    Cartesian Multipole Moments
 -----------------------------------------------------------------
    Charge (ESU x 10^10)
                -0.0000
    Dipole Moment (Debye)
         X       2.0371      Y       0.4662      Z       0.6660
       Tot       2.1933
    Quadrupole Moments (Debye-Ang)
        XX     -86.6753     XY       1.7517     YY     -70.6935
        XZ      -2.5200     YZ       2.0333     ZZ     -84.8977

 Total job time:  557.32s(wall), 554.31s(cpu)
        *  Thank you very much for using Q-Chem.  Have a nice day.  *
