 Q-Chem 5.4, Q-Chem, Inc., Pleasanton, CA (2021)
 Q-Chem 5.4.0 for Intel X86 EM64T Linux

User input:
--------------------------------------------------------------
$molecule
0 1
C	0.388181	-3.866725	-0.670924
C	-0.306020	-3.703963	0.530648
C	-0.533378	-2.357056	0.923703
H	-0.651043	-4.561092	1.128579
C	0.000000	-1.440664	0.000000
S	0.772234	-2.286957	-1.337567
C	-1.261192	-1.978743	2.183857
H	-1.583666	-2.878678	2.742548
H	-2.168641	-1.376015	1.970497
H	-0.623012	-1.375728	2.863099
H	0.688443	-4.783437	-1.190530
C	0.000000	0.000000	0.000000
C	0.295399	0.811508	1.099446
C	0.768742	2.111949	0.776721
H	0.169256	0.464952	2.136088
C	0.844232	2.319291	-0.612546
S	0.322342	0.885558	-1.486809
C	1.140796	3.134091	1.814609
H	0.995218	2.734123	2.836676
H	0.526006	4.054142	1.726239
H	2.203157	3.443680	1.726228
H	1.168902	3.211257	-1.161575
$end

$rem
JOBTYPE		SP
EXCHANGE	HF
CORRELATION	pRIMP2
BASIS		cc-pvtz
METHOD		rimp2
AUX_BASIS	rimp2-cc-pvtz
SOLVENT_METHOD	PCM
PURECART	11111
SYMMETRY	false
MEM_TOTAL	110000
SCF_CONVERGENCE = 6
THRESH=10
$end

$solvent
dielectric 4.90
$end
--------------------------------------------------------------

             Standard Nuclear Orientation (Angstroms)
    I     Atom           X                Y                Z
 ----------------------------------------------------------------
    1      C       0.3881810000    -3.8667250000    -0.6709240000
    2      C      -0.3060200000    -3.7039630000     0.5306480000
    3      C      -0.5333780000    -2.3570560000     0.9237030000
    4      H      -0.6510430000    -4.5610920000     1.1285790000
    5      C       0.0000000000    -1.4406640000     0.0000000000
    6      S       0.7722340000    -2.2869570000    -1.3375670000
    7      C      -1.2611920000    -1.9787430000     2.1838570000
    8      H      -1.5836660000    -2.8786780000     2.7425480000
    9      H      -2.1686410000    -1.3760150000     1.9704970000
   10      H      -0.6230120000    -1.3757280000     2.8630990000
   11      H       0.6884430000    -4.7834370000    -1.1905300000
   12      C       0.0000000000     0.0000000000     0.0000000000
   13      C       0.2953990000     0.8115080000     1.0994460000
   14      C       0.7687420000     2.1119490000     0.7767210000
   15      H       0.1692560000     0.4649520000     2.1360880000
   16      C       0.8442320000     2.3192910000    -0.6125460000
   17      S       0.3223420000     0.8855580000    -1.4868090000
   18      C       1.1407960000     3.1340910000     1.8146090000
   19      H       0.9952180000     2.7341230000     2.8366760000
   20      H       0.5260060000     4.0541420000     1.7262390000
   21      H       2.2031570000     3.4436800000     1.7262280000
   22      H       1.1689020000     3.2112570000    -1.1615750000
 ----------------------------------------------------------------

   10   -1179.6783583342      4.84e-07  Convergence criterion met
 Total energy in the final basis set =    -1179.6783583342
        RIMP2         total energy =     -1181.6597958237 a.u.

                    Orbital Energies (a.u.)
 --------------------------------------------------------------

 Alpha MOs
 -- Occupied --
-91.9865 -91.9846 -11.2810 -11.2776 -11.2691 -11.2670 -11.2530 -11.2500
-11.2440 -11.2425 -11.2302 -11.2298  -8.9862  -8.9844  -6.6671  -6.6666
 -6.6660  -6.6652  -6.6647  -6.6640  -1.1818  -1.1499  -1.0425  -1.0253
 -0.9962  -0.9565  -0.9128  -0.8942  -0.8029  -0.7549  -0.7293  -0.6988
 -0.6613  -0.6148  -0.5889  -0.5812  -0.5702  -0.5641  -0.5523  -0.5384
 -0.5306  -0.5216  -0.5065  -0.4908  -0.4850  -0.4760  -0.4531  -0.3652
 -0.3438  -0.3383  -0.2720

          Ground-State Mulliken Net Atomic Charges

     Atom                 Charge (a.u.)
  ----------------------------------------
      1 C                    -0.222674
      2 C                    -0.247193
      3 C                     0.042438
      4 H                     0.183609
      5 C                    -0.029368
      6 S                     0.015303
      7 C                    -0.303378
      8 H                     0.112861
      9 H                     0.114973
     10 H                     0.105474
     11 H                     0.205399
     12 C                     0.005435
     13 C                    -0.215320
     14 C                     0.013979
     15 H                     0.193129
     16 C                    -0.230177
     17 S                     0.007839
     18 C                    -0.271548
     19 H                     0.101826
     20 H                     0.108708
     21 H                     0.108686
     22 H                     0.199999
  ----------------------------------------
  Sum of atomic charges =     0.000000

                    Cartesian Multipole Moments
 -----------------------------------------------------------------
    Charge (ESU x 10^10)
                -0.0000
    Dipole Moment (Debye)
         X      -0.0158      Y       0.4552      Z       2.7173
       Tot       2.7552
    Quadrupole Moments (Debye-Ang)
        XX     -89.7832     XY       4.6836     YY     -70.3454
        XZ      -2.4653     YZ      -0.9465     ZZ     -81.7271

 Total job time:  554.48s(wall), 550.29s(cpu)
        *  Thank you very much for using Q-Chem.  Have a nice day.  *
