 Q-Chem 5.4, Q-Chem, Inc., Pleasanton, CA (2021)
 Q-Chem 5.4.0 for Intel X86 EM64T Linux

User input:
--------------------------------------------------------------
$molecule
0 1
C	0.671636	-3.866725	-0.386946
C	-0.530345	-3.703963	0.306544
C	-0.923770	-2.357056	0.533261
H	-1.128109	-4.561092	0.651857
C	0.000000	-1.440664	0.000000
S	1.337557	-2.286957	-0.772250
C	-2.184153	-1.978743	1.260680
H	-2.742769	-2.878678	1.583283
H	-2.863347	-1.376015	0.622180
H	-1.971094	-1.375728	2.168011
H	1.191474	-4.783437	-0.686807
C	0.000000	0.000000	0.000000
C	0.661577	0.555087	1.099446
C	1.721724	1.444630	0.776721
H	0.379056	0.318032	2.136088
C	1.890772	1.586449	-0.612546
S	0.721935	0.605744	-1.486809
C	2.555004	2.143805	1.814609
H	2.228946	1.870211	2.836676
H	2.482605	3.247987	1.726239
H	3.629830	1.880735	1.726228
H	2.617927	2.196579	-1.161575
$end

$rem
JOBTYPE		SP
EXCHANGE	HF
CORRELATION	pRIMP2
BASIS		cc-pvtz
METHOD		rimp2
AUX_BASIS	rimp2-cc-pvtz
SOLVENT_METHOD	PCM
PURECART	11111
SYMMETRY	false
MEM_TOTAL	110000
SCF_CONVERGENCE = 6
THRESH=10
$end

$solvent
dielectric 4.90
$end
--------------------------------------------------------------

             Standard Nuclear Orientation (Angstroms)
    I     Atom           X                Y                Z
 ----------------------------------------------------------------
    1      C       0.6716360000    -3.8667250000    -0.3869460000
    2      C      -0.5303450000    -3.7039630000     0.3065440000
    3      C      -0.9237700000    -2.3570560000     0.5332610000
    4      H      -1.1281090000    -4.5610920000     0.6518570000
    5      C       0.0000000000    -1.4406640000     0.0000000000
    6      S       1.3375570000    -2.2869570000    -0.7722500000
    7      C      -2.1841530000    -1.9787430000     1.2606800000
    8      H      -2.7427690000    -2.8786780000     1.5832830000
    9      H      -2.8633470000    -1.3760150000     0.6221800000
   10      H      -1.9710940000    -1.3757280000     2.1680110000
   11      H       1.1914740000    -4.7834370000    -0.6868070000
   12      C       0.0000000000     0.0000000000     0.0000000000
   13      C       0.6615770000     0.5550870000     1.0994460000
   14      C       1.7217240000     1.4446300000     0.7767210000
   15      H       0.3790560000     0.3180320000     2.1360880000
   16      C       1.8907720000     1.5864490000    -0.6125460000
   17      S       0.7219350000     0.6057440000    -1.4868090000
   18      C       2.5550040000     2.1438050000     1.8146090000
   19      H       2.2289460000     1.8702110000     2.8366760000
   20      H       2.4826050000     3.2479870000     1.7262390000
   21      H       3.6298300000     1.8807350000     1.7262280000
   22      H       2.6179270000     2.1965790000    -1.1615750000
 ----------------------------------------------------------------

   10   -1179.6356521062      7.65e-07  Convergence criterion met
 Total energy in the final basis set =    -1179.6356521062
        RIMP2         total energy =     -1181.6258267655 a.u.

                    Orbital Energies (a.u.)
 --------------------------------------------------------------

 Alpha MOs
 -- Occupied --
-91.9848 -91.9772 -11.2836 -11.2733 -11.2621 -11.2605 -11.2595 -11.2538
-11.2384 -11.2364 -11.2309 -11.2257  -8.9852  -8.9773  -6.6660  -6.6652
 -6.6649  -6.6581  -6.6575  -6.6569  -1.1875  -1.1458  -1.0450  -1.0186
 -0.9982  -0.9537  -0.9096  -0.8914  -0.7996  -0.7488  -0.7374  -0.6930
 -0.6562  -0.6192  -0.5870  -0.5793  -0.5686  -0.5668  -0.5495  -0.5348
 -0.5325  -0.5169  -0.5079  -0.4890  -0.4757  -0.4609  -0.4572  -0.3611
 -0.3379  -0.3231  -0.2803

          Ground-State Mulliken Net Atomic Charges

     Atom                 Charge (a.u.)
  ----------------------------------------
      1 C                    -0.240245
      2 C                    -0.245118
      3 C                     0.020898
      4 H                     0.180393
      5 C                    -0.025645
      6 S                     0.021042
      7 C                    -0.286981
      8 H                     0.105828
      9 H                     0.107796
     10 H                     0.104182
     11 H                     0.201018
     12 C                    -0.087934
     13 C                    -0.127841
     14 C                    -0.007775
     15 H                     0.190812
     16 C                    -0.187420
     17 S                     0.025276
     18 C                    -0.267532
     19 H                     0.102862
     20 H                     0.107943
     21 H                     0.107031
     22 H                     0.201409
  ----------------------------------------
  Sum of atomic charges =     0.000000

                    Cartesian Multipole Moments
 -----------------------------------------------------------------
    Charge (ESU x 10^10)
                -0.0000
    Dipole Moment (Debye)
         X       1.0932      Y       1.1326      Z       2.2356
       Tot       2.7342
    Quadrupole Moments (Debye-Ang)
        XX     -80.9744     XY       8.0297     YY     -78.2850
        XZ      -2.0215     YZ      -0.5748     ZZ     -84.3503

 Total job time:  566.80s(wall), 563.48s(cpu)
        *  Thank you very much for using Q-Chem.  Have a nice day.  *
