 Q-Chem 5.4, Q-Chem, Inc., Pleasanton, CA (2021)
 Q-Chem 5.4.0 for Intel X86 EM64T Linux

User input:
--------------------------------------------------------------
$molecule
0 1
C	-0.386946	-3.866725	-0.671636
C	0.306544	-3.703963	0.530345
C	0.533261	-2.357056	0.923770
H	0.651857	-4.561092	1.128109
C	-0.000000	-1.440664	-0.000000
S	-0.772250	-2.286957	-1.337557
C	1.260680	-1.978743	2.184153
H	1.583283	-2.878678	2.742769
H	0.622180	-1.376015	2.863347
H	2.168011	-1.375728	1.971094
H	-0.686807	-4.783437	-1.191474
C	0.000000	0.000000	0.000000
C	0.555137	0.661535	1.099446
C	1.444710	1.721658	0.776721
H	0.318072	0.379023	2.136088
C	1.586563	1.890676	-0.612546
S	0.605781	0.721904	-1.486809
C	2.143920	2.554907	1.814609
H	1.870325	2.228851	2.836676
H	1.880882	3.629742	1.726239
H	3.248098	2.482476	1.726228
H	2.196723	2.617806	-1.161575
$end

$rem
JOBTYPE		SP
EXCHANGE	HF
CORRELATION	pRIMP2
BASIS		cc-pvtz
METHOD		rimp2
AUX_BASIS	rimp2-cc-pvtz
SOLVENT_METHOD	PCM
PURECART	11111
SYMMETRY	false
MEM_TOTAL	110000
SCF_CONVERGENCE = 6
THRESH=10
$end

$solvent
dielectric 4.90
$end
--------------------------------------------------------------

             Standard Nuclear Orientation (Angstroms)
    I     Atom           X                Y                Z
 ----------------------------------------------------------------
    1      C      -0.3869460000    -3.8667250000    -0.6716360000
    2      C       0.3065440000    -3.7039630000     0.5303450000
    3      C       0.5332610000    -2.3570560000     0.9237700000
    4      H       0.6518570000    -4.5610920000     1.1281090000
    5      C       0.0000000000    -1.4406640000     0.0000000000
    6      S      -0.7722500000    -2.2869570000    -1.3375570000
    7      C       1.2606800000    -1.9787430000     2.1841530000
    8      H       1.5832830000    -2.8786780000     2.7427690000
    9      H       0.6221800000    -1.3760150000     2.8633470000
   10      H       2.1680110000    -1.3757280000     1.9710940000
   11      H      -0.6868070000    -4.7834370000    -1.1914740000
   12      C       0.0000000000     0.0000000000     0.0000000000
   13      C       0.5551370000     0.6615350000     1.0994460000
   14      C       1.4447100000     1.7216580000     0.7767210000
   15      H       0.3180720000     0.3790230000     2.1360880000
   16      C       1.5865630000     1.8906760000    -0.6125460000
   17      S       0.6057810000     0.7219040000    -1.4868090000
   18      C       2.1439200000     2.5549070000     1.8146090000
   19      H       1.8703250000     2.2288510000     2.8366760000
   20      H       1.8808820000     3.6297420000     1.7262390000
   21      H       3.2480980000     2.4824760000     1.7262280000
   22      H       2.1967230000     2.6178060000    -1.1615750000
 ----------------------------------------------------------------

   10   -1179.6520951738      7.38e-07  Convergence criterion met
 Total energy in the final basis set =    -1179.6520951738
        RIMP2         total energy =     -1181.6405339794 a.u.

                    Orbital Energies (a.u.)
 --------------------------------------------------------------

 Alpha MOs
 -- Occupied --
-91.9838 -91.9784 -11.2769 -11.2758 -11.2700 -11.2670 -11.2533 -11.2499
-11.2473 -11.2408 -11.2307 -11.2289  -8.9840  -8.9787  -6.6649  -6.6642
 -6.6637  -6.6597  -6.6591  -6.6585  -1.1844  -1.1484  -1.0436  -1.0249
 -0.9961  -0.9545  -0.9135  -0.8936  -0.7990  -0.7553  -0.7309  -0.7012
 -0.6577  -0.6156  -0.5929  -0.5820  -0.5709  -0.5616  -0.5503  -0.5402
 -0.5277  -0.5241  -0.5065  -0.4898  -0.4776  -0.4693  -0.4525  -0.3605
 -0.3453  -0.3373  -0.2704

          Ground-State Mulliken Net Atomic Charges

     Atom                 Charge (a.u.)
  ----------------------------------------
      1 C                    -0.218522
      2 C                    -0.253497
      3 C                     0.052544
      4 H                     0.183433
      5 C                    -0.017696
      6 S                     0.001501
      7 C                    -0.305146
      8 H                     0.115538
      9 H                     0.102621
     10 H                     0.117320
     11 H                     0.204223
     12 C                    -0.028646
     13 C                    -0.258922
     14 C                     0.043170
     15 H                     0.199025
     16 C                    -0.223964
     17 S                     0.035162
     18 C                    -0.270238
     19 H                     0.102729
     20 H                     0.110914
     21 H                     0.108093
     22 H                     0.200357
  ----------------------------------------
  Sum of atomic charges =     0.000000

                    Cartesian Multipole Moments
 -----------------------------------------------------------------
    Charge (ESU x 10^10)
                -0.0000
    Dipole Moment (Debye)
         X       2.4128      Y       0.6929      Z       2.9127
       Tot       3.8452
    Quadrupole Moments (Debye-Ang)
        XX     -86.1618     XY       4.6957     YY     -74.4754
        XZ       3.2559     YZ      -1.2669     ZZ     -81.8095

 Total job time:  596.82s(wall), 593.61s(cpu)
        *  Thank you very much for using Q-Chem.  Have a nice day.  *
