 Q-Chem 5.4, Q-Chem, Inc., Pleasanton, CA (2021)
 Q-Chem 5.4.0 for Intel X86 EM64T Linux

User input:
--------------------------------------------------------------
$molecule
0 1
C	-0.593324	-3.866725	-0.498788
C	0.469446	-3.703963	0.393517
C	0.817050	-2.357056	0.685674
H	0.998381	-4.561092	0.837128
C	-0.000000	-1.440664	-0.000000
S	-1.183149	-2.286957	-0.992768
C	1.931676	-1.978743	1.621254
H	2.425882	-2.878678	2.035845
H	1.563980	-1.376015	2.477868
H	2.711417	-1.375728	1.110719
H	-1.052896	-4.783437	-0.884718
C	0.000000	0.000000	0.000000
C	0.075300	0.860311	1.099446
C	0.195935	2.238951	0.776721
H	0.043151	0.492916	2.136088
C	0.215188	2.458766	-0.612546
S	0.082160	0.938811	-1.486809
C	0.290762	3.322559	1.814609
H	0.253664	2.898542	2.836676
H	-0.541206	4.052140	1.726239
H	1.236797	3.896558	1.726228
H	0.297938	3.404370	-1.161575
$end

$rem
JOBTYPE		SP
EXCHANGE	HF
CORRELATION	pRIMP2
BASIS		cc-pvtz
METHOD		rimp2
AUX_BASIS	rimp2-cc-pvtz
SOLVENT_METHOD	PCM
PURECART	11111
SYMMETRY	false
MEM_TOTAL	110000
SCF_CONVERGENCE = 6
THRESH=10
$end

$solvent
dielectric 4.90
$end
--------------------------------------------------------------

             Standard Nuclear Orientation (Angstroms)
    I     Atom           X                Y                Z
 ----------------------------------------------------------------
    1      C      -0.5933240000    -3.8667250000    -0.4987880000
    2      C       0.4694460000    -3.7039630000     0.3935170000
    3      C       0.8170500000    -2.3570560000     0.6856740000
    4      H       0.9983810000    -4.5610920000     0.8371280000
    5      C       0.0000000000    -1.4406640000     0.0000000000
    6      S      -1.1831490000    -2.2869570000    -0.9927680000
    7      C       1.9316760000    -1.9787430000     1.6212540000
    8      H       2.4258820000    -2.8786780000     2.0358450000
    9      H       1.5639800000    -1.3760150000     2.4778680000
   10      H       2.7114170000    -1.3757280000     1.1107190000
   11      H      -1.0528960000    -4.7834370000    -0.8847180000
   12      C       0.0000000000     0.0000000000     0.0000000000
   13      C       0.0753000000     0.8603110000     1.0994460000
   14      C       0.1959350000     2.2389510000     0.7767210000
   15      H       0.0431510000     0.4929160000     2.1360880000
   16      C       0.2151880000     2.4587660000    -0.6125460000
   17      S       0.0821600000     0.9388110000    -1.4868090000
   18      C       0.2907620000     3.3225590000     1.8146090000
   19      H       0.2536640000     2.8985420000     2.8366760000
   20      H      -0.5412060000     4.0521400000     1.7262390000
   21      H       1.2367970000     3.8965580000     1.7262280000
   22      H       0.2979380000     3.4043700000    -1.1615750000
 ----------------------------------------------------------------

   10   -1179.6863007435      5.22e-07  Convergence criterion met
 Total energy in the final basis set =    -1179.6863007435
        RIMP2         total energy =     -1181.6649757305 a.u.

                    Orbital Energies (a.u.)
 --------------------------------------------------------------

 Alpha MOs
 -- Occupied --
-91.9860 -91.9848 -11.2807 -11.2753 -11.2726 -11.2642 -11.2542 -11.2516
-11.2429 -11.2412 -11.2297 -11.2293  -8.9855  -8.9846  -6.6664  -6.6658
 -6.6655  -6.6652  -6.6649  -6.6643  -1.1796  -1.1499  -1.0408  -1.0247
 -0.9964  -0.9555  -0.9132  -0.8932  -0.8020  -0.7540  -0.7302  -0.6973
 -0.6623  -0.6154  -0.5853  -0.5803  -0.5703  -0.5657  -0.5522  -0.5352
 -0.5294  -0.5216  -0.5071  -0.4914  -0.4878  -0.4698  -0.4586  -0.3517
 -0.3415  -0.3393  -0.2828

          Ground-State Mulliken Net Atomic Charges

     Atom                 Charge (a.u.)
  ----------------------------------------
      1 C                    -0.214503
      2 C                    -0.248248
      3 C                     0.045864
      4 H                     0.184506
      5 C                    -0.034669
      6 S                     0.020532
      7 C                    -0.284336
      8 H                     0.111264
      9 H                     0.107515
     10 H                     0.113799
     11 H                     0.205121
     12 C                    -0.002863
     13 C                    -0.246051
     14 C                     0.023901
     15 H                     0.192751
     16 C                    -0.243836
     17 S                     0.023453
     18 C                    -0.271723
     19 H                     0.102218
     20 H                     0.108782
     21 H                     0.108265
     22 H                     0.198260
  ----------------------------------------
  Sum of atomic charges =     0.000000

                    Cartesian Multipole Moments
 -----------------------------------------------------------------
    Charge (ESU x 10^10)
                -0.0000
    Dipole Moment (Debye)
         X       1.3262      Y       0.2027      Z       2.4263
       Tot       2.7726
    Quadrupole Moments (Debye-Ang)
        XX     -88.8099     XY      -0.6382     YY     -68.6190
        XZ       3.3256     YZ      -0.3508     ZZ     -84.0241

 Total job time:  552.64s(wall), 548.40s(cpu)
        *  Thank you very much for using Q-Chem.  Have a nice day.  *
