 Q-Chem 5.4, Q-Chem, Inc., Pleasanton, CA (2021)
 Q-Chem 5.4.0 for Intel X86 EM64T Linux

User input:
--------------------------------------------------------------
$molecule
0 1
C	0.497696	-3.866725	0.594240
C	-0.393981	-3.703963	-0.469057
C	-0.685571	-2.357056	-0.817136
H	-0.837848	-4.561092	-0.997777
C	-0.000000	-1.440664	-0.000000
S	0.992782	-2.286957	1.183137
C	-1.620802	-1.978743	-1.932056
H	-2.035506	-2.878678	-2.426166
H	-1.109943	-1.376015	-2.711806
H	-2.477350	-1.375728	-1.564678
H	0.883271	-4.783437	1.054110
C	0.000000	0.000000	0.000000
C	0.149995	0.850475	1.099446
C	0.390327	2.213354	0.776721
H	0.085947	0.487279	2.136088
C	0.428665	2.430655	-0.612546
S	0.163670	0.928078	-1.486809
C	0.579235	3.284574	1.814609
H	0.505323	2.865404	2.836676
H	-0.185980	4.083890	1.726239
H	1.571698	3.773937	1.726228
H	0.593515	3.365448	-1.161575
$end

$rem
JOBTYPE		SP
EXCHANGE	HF
CORRELATION	pRIMP2
BASIS		cc-pvtz
METHOD		rimp2
AUX_BASIS	rimp2-cc-pvtz
SOLVENT_METHOD	PCM
PURECART	11111
SYMMETRY	false
MEM_TOTAL	110000
SCF_CONVERGENCE = 6
THRESH=10
$end

$solvent
dielectric 4.90
$end
--------------------------------------------------------------

             Standard Nuclear Orientation (Angstroms)
    I     Atom           X                Y                Z
 ----------------------------------------------------------------
    1      C       0.4976960000    -3.8667250000     0.5942400000
    2      C      -0.3939810000    -3.7039630000    -0.4690570000
    3      C      -0.6855710000    -2.3570560000    -0.8171360000
    4      H      -0.8378480000    -4.5610920000    -0.9977770000
    5      C       0.0000000000    -1.4406640000     0.0000000000
    6      S       0.9927820000    -2.2869570000     1.1831370000
    7      C      -1.6208020000    -1.9787430000    -1.9320560000
    8      H      -2.0355060000    -2.8786780000    -2.4261660000
    9      H      -1.1099430000    -1.3760150000    -2.7118060000
   10      H      -2.4773500000    -1.3757280000    -1.5646780000
   11      H       0.8832710000    -4.7834370000     1.0541100000
   12      C       0.0000000000     0.0000000000     0.0000000000
   13      C       0.1499950000     0.8504750000     1.0994460000
   14      C       0.3903270000     2.2133540000     0.7767210000
   15      H       0.0859470000     0.4872790000     2.1360880000
   16      C       0.4286650000     2.4306550000    -0.6125460000
   17      S       0.1636700000     0.9280780000    -1.4868090000
   18      C       0.5792350000     3.2845740000     1.8146090000
   19      H       0.5053230000     2.8654040000     2.8366760000
   20      H      -0.1859800000     4.0838900000     1.7262390000
   21      H       1.5716980000     3.7739370000     1.7262280000
   22      H       0.5935150000     3.3654480000    -1.1615750000
 ----------------------------------------------------------------

   10   -1179.6858422124      5.32e-07  Convergence criterion met
 Total energy in the final basis set =    -1179.6858422124
        RIMP2         total energy =     -1181.6650690607 a.u.

                    Orbital Energies (a.u.)
 --------------------------------------------------------------

 Alpha MOs
 -- Occupied --
-91.9856 -91.9853 -11.2816 -11.2757 -11.2721 -11.2644 -11.2529 -11.2518
-11.2428 -11.2414 -11.2298 -11.2290  -8.9852  -8.9849  -6.6661  -6.6658
 -6.6656  -6.6653  -6.6649  -6.6647  -1.1803  -1.1499  -1.0413  -1.0243
 -0.9989  -0.9526  -0.9150  -0.8934  -0.8007  -0.7620  -0.7231  -0.6945
 -0.6630  -0.6162  -0.5836  -0.5783  -0.5766  -0.5697  -0.5524  -0.5340
 -0.5259  -0.5197  -0.5090  -0.4955  -0.4886  -0.4678  -0.4566  -0.3566
 -0.3425  -0.3407  -0.2773

          Ground-State Mulliken Net Atomic Charges

     Atom                 Charge (a.u.)
  ----------------------------------------
      1 C                    -0.213899
      2 C                    -0.247796
      3 C                     0.029592
      4 H                     0.184484
      5 C                    -0.021232
      6 S                     0.019990
      7 C                    -0.299202
      8 H                     0.110761
      9 H                     0.112159
     10 H                     0.115617
     11 H                     0.205185
     12 C                     0.039873
     13 C                    -0.285265
     14 C                     0.038995
     15 H                     0.186218
     16 C                    -0.249372
     17 S                     0.027608
     18 C                    -0.271617
     19 H                     0.102985
     20 H                     0.108107
     21 H                     0.108917
     22 H                     0.197892
  ----------------------------------------
  Sum of atomic charges =     0.000000

                    Cartesian Multipole Moments
 -----------------------------------------------------------------
    Charge (ESU x 10^10)
                -0.0000
    Dipole Moment (Debye)
         X      -0.6414      Y       0.1890      Z       0.2622
       Tot       0.7183
    Quadrupole Moments (Debye-Ang)
        XX     -89.6674     XY       3.2733     YY     -68.9385
        XZ       3.5159     YZ       2.6790     ZZ     -82.7333

 Total job time:  560.12s(wall), 556.43s(cpu)
        *  Thank you very much for using Q-Chem.  Have a nice day.  *
