 Q-Chem 5.4, Q-Chem, Inc., Pleasanton, CA (2021)
 Q-Chem 5.4.0 for Intel X86 EM64T Linux

User input:
--------------------------------------------------------------
$molecule
0 1
C	0.386946	-3.866725	0.671636
C	-0.306544	-3.703963	-0.530345
C	-0.533261	-2.357056	-0.923770
H	-0.651857	-4.561092	-1.128109
C	-0.000000	-1.440664	-0.000000
S	0.772250	-2.286957	1.337557
C	-1.260680	-1.978743	-2.184153
H	-1.583283	-2.878678	-2.742769
H	-0.622180	-1.376015	-2.863347
H	-2.168011	-1.375728	-1.971094
H	0.686807	-4.783437	1.191474
C	0.000000	0.000000	0.000000
C	0.149995	0.850475	1.099446
C	0.390327	2.213354	0.776721
H	0.085947	0.487279	2.136088
C	0.428665	2.430655	-0.612546
S	0.163670	0.928078	-1.486809
C	0.579235	3.284574	1.814609
H	0.505323	2.865404	2.836676
H	-0.185980	4.083890	1.726239
H	1.571698	3.773937	1.726228
H	0.593515	3.365448	-1.161575
$end

$rem
JOBTYPE		SP
EXCHANGE	HF
CORRELATION	pRIMP2
BASIS		cc-pvtz
METHOD		rimp2
AUX_BASIS	rimp2-cc-pvtz
SOLVENT_METHOD	PCM
PURECART	11111
SYMMETRY	false
MEM_TOTAL	110000
SCF_CONVERGENCE = 6
THRESH=10
$end

$solvent
dielectric 4.90
$end
--------------------------------------------------------------

             Standard Nuclear Orientation (Angstroms)
    I     Atom           X                Y                Z
 ----------------------------------------------------------------
    1      C       0.3869460000    -3.8667250000     0.6716360000
    2      C      -0.3065440000    -3.7039630000    -0.5303450000
    3      C      -0.5332610000    -2.3570560000    -0.9237700000
    4      H      -0.6518570000    -4.5610920000    -1.1281090000
    5      C       0.0000000000    -1.4406640000     0.0000000000
    6      S       0.7722500000    -2.2869570000     1.3375570000
    7      C      -1.2606800000    -1.9787430000    -2.1841530000
    8      H      -1.5832830000    -2.8786780000    -2.7427690000
    9      H      -0.6221800000    -1.3760150000    -2.8633470000
   10      H      -2.1680110000    -1.3757280000    -1.9710940000
   11      H       0.6868070000    -4.7834370000     1.1914740000
   12      C       0.0000000000     0.0000000000     0.0000000000
   13      C       0.1499950000     0.8504750000     1.0994460000
   14      C       0.3903270000     2.2133540000     0.7767210000
   15      H       0.0859470000     0.4872790000     2.1360880000
   16      C       0.4286650000     2.4306550000    -0.6125460000
   17      S       0.1636700000     0.9280780000    -1.4868090000
   18      C       0.5792350000     3.2845740000     1.8146090000
   19      H       0.5053230000     2.8654040000     2.8366760000
   20      H      -0.1859800000     4.0838900000     1.7262390000
   21      H       1.5716980000     3.7739370000     1.7262280000
   22      H       0.5935150000     3.3654480000    -1.1615750000
 ----------------------------------------------------------------

   10   -1179.6856916975      5.41e-07  Convergence criterion met
 Total energy in the final basis set =    -1179.6856916975
        RIMP2         total energy =     -1181.6654850966 a.u.

                    Orbital Energies (a.u.)
 --------------------------------------------------------------

 Alpha MOs
 -- Occupied --
-91.9854 -91.9853 -11.2826 -11.2767 -11.2723 -11.2637 -11.2532 -11.2521
-11.2431 -11.2409 -11.2301 -11.2290  -8.9851  -8.9850  -6.6660  -6.6659
 -6.6655  -6.6653  -6.6649  -6.6647  -1.1809  -1.1500  -1.0417  -1.0249
 -0.9990  -0.9525  -0.9152  -0.8940  -0.8007  -0.7635  -0.7217  -0.6949
 -0.6632  -0.6161  -0.5840  -0.5789  -0.5777  -0.5698  -0.5527  -0.5342
 -0.5251  -0.5200  -0.5098  -0.4960  -0.4892  -0.4680  -0.4545  -0.3626
 -0.3427  -0.3410  -0.2733

          Ground-State Mulliken Net Atomic Charges

     Atom                 Charge (a.u.)
  ----------------------------------------
      1 C                    -0.213418
      2 C                    -0.249469
      3 C                     0.035671
      4 H                     0.184552
      5 C                    -0.020973
      6 S                     0.015685
      7 C                    -0.308136
      8 H                     0.112533
      9 H                     0.112580
     10 H                     0.118301
     11 H                     0.205889
     12 C                     0.053355
     13 C                    -0.292839
     14 C                     0.042922
     15 H                     0.182696
     16 C                    -0.254292
     17 S                     0.028211
     18 C                    -0.271490
     19 H                     0.102994
     20 H                     0.108157
     21 H                     0.109084
     22 H                     0.197986
  ----------------------------------------
  Sum of atomic charges =     0.000000

                    Cartesian Multipole Moments
 -----------------------------------------------------------------
    Charge (ESU x 10^10)
                -0.0000
    Dipole Moment (Debye)
         X      -0.4406      Y       0.1464      Z       0.0903
       Tot       0.4730
    Quadrupole Moments (Debye-Ang)
        XX     -90.7517     XY       2.9862     YY     -68.8948
        XZ       3.1386     YZ       2.9465     ZZ     -81.5974

 Total job time:  582.90s(wall), 578.97s(cpu)
        *  Thank you very much for using Q-Chem.  Have a nice day.  *
