 Q-Chem 5.4, Q-Chem, Inc., Pleasanton, CA (2021)
 Q-Chem 5.4.0 for Intel X86 EM64T Linux

User input:
--------------------------------------------------------------
$molecule
0 1
C	0.670924	-3.866725	0.388181
C	-0.530648	-3.703963	-0.306020
C	-0.923703	-2.357056	-0.533378
H	-1.128579	-4.561092	-0.651043
C	0.000000	-1.440664	0.000000
S	1.337567	-2.286957	0.772234
C	-2.183857	-1.978743	-1.261192
H	-2.742548	-2.878678	-1.583666
H	-1.970497	-1.376015	-2.168641
H	-2.863099	-1.375728	-0.623012
H	1.190530	-4.783437	0.688443
C	0.000000	0.000000	0.000000
C	0.000033	0.863600	1.099446
C	0.000052	2.247508	0.776721
H	0.000026	0.494801	2.136088
C	0.000074	2.468165	-0.612546
S	0.000024	0.942399	-1.486809
C	0.000075	3.335257	1.814609
H	0.000074	2.909620	2.836676
H	-0.892314	3.989552	1.726239
H	0.892483	3.989525	1.726228
H	0.000094	3.417382	-1.161575
$end

$rem
JOBTYPE		SP
EXCHANGE	HF
CORRELATION	pRIMP2
BASIS		cc-pvtz
METHOD		rimp2
AUX_BASIS	rimp2-cc-pvtz
SOLVENT_METHOD	PCM
PURECART	11111
SYMMETRY	false
MEM_TOTAL	110000
SCF_CONVERGENCE = 6
THRESH=10
$end

$solvent
dielectric 4.90
$end
--------------------------------------------------------------

             Standard Nuclear Orientation (Angstroms)
    I     Atom           X                Y                Z
 ----------------------------------------------------------------
    1      C       0.6709240000    -3.8667250000     0.3881810000
    2      C      -0.5306480000    -3.7039630000    -0.3060200000
    3      C      -0.9237030000    -2.3570560000    -0.5333780000
    4      H      -1.1285790000    -4.5610920000    -0.6510430000
    5      C       0.0000000000    -1.4406640000     0.0000000000
    6      S       1.3375670000    -2.2869570000     0.7722340000
    7      C      -2.1838570000    -1.9787430000    -1.2611920000
    8      H      -2.7425480000    -2.8786780000    -1.5836660000
    9      H      -1.9704970000    -1.3760150000    -2.1686410000
   10      H      -2.8630990000    -1.3757280000    -0.6230120000
   11      H       1.1905300000    -4.7834370000     0.6884430000
   12      C       0.0000000000     0.0000000000     0.0000000000
   13      C       0.0000330000     0.8636000000     1.0994460000
   14      C       0.0000520000     2.2475080000     0.7767210000
   15      H       0.0000260000     0.4948010000     2.1360880000
   16      C       0.0000740000     2.4681650000    -0.6125460000
   17      S       0.0000240000     0.9423990000    -1.4868090000
   18      C       0.0000750000     3.3352570000     1.8146090000
   19      H       0.0000740000     2.9096200000     2.8366760000
   20      H      -0.8923140000     3.9895520000     1.7262390000
   21      H       0.8924830000     3.9895250000     1.7262280000
   22      H       0.0000940000     3.4173820000    -1.1615750000
 ----------------------------------------------------------------

   10   -1179.6866104873      5.07e-07  Convergence criterion met
 Total energy in the final basis set =    -1179.6866104873
        RIMP2         total energy =     -1181.6647989537 a.u.

                    Orbital Energies (a.u.)
 --------------------------------------------------------------

 Alpha MOs
 -- Occupied --
-91.9854 -91.9853 -11.2803 -11.2742 -11.2722 -11.2645 -11.2535 -11.2511
-11.2424 -11.2420 -11.2291 -11.2289  -8.9849  -8.9849  -6.6658  -6.6658
 -6.6652  -6.6652  -6.6646  -6.6646  -1.1791  -1.1497  -1.0405  -1.0232
 -0.9982  -0.9533  -0.9142  -0.8925  -0.8006  -0.7585  -0.7263  -0.6947
 -0.6626  -0.6163  -0.5827  -0.5783  -0.5736  -0.5696  -0.5521  -0.5329
 -0.5274  -0.5196  -0.5084  -0.4937  -0.4882  -0.4664  -0.4596  -0.3461
 -0.3433  -0.3345  -0.2888

          Ground-State Mulliken Net Atomic Charges

     Atom                 Charge (a.u.)
  ----------------------------------------
      1 C                    -0.215168
      2 C                    -0.247673
      3 C                     0.031467
      4 H                     0.184487
      5 C                    -0.031106
      6 S                     0.024549
      7 C                    -0.285866
      8 H                     0.108971
      9 H                     0.110714
     10 H                     0.112391
     11 H                     0.204639
     12 C                     0.003260
     13 C                    -0.241799
     14 C                     0.021099
     15 H                     0.188390
     16 C                    -0.238973
     17 S                     0.024750
     18 C                    -0.271298
     19 H                     0.102870
     20 H                     0.107979
     21 H                     0.108350
     22 H                     0.197966
  ----------------------------------------
  Sum of atomic charges =     0.000000

                    Cartesian Multipole Moments
 -----------------------------------------------------------------
    Charge (ESU x 10^10)
                -0.0000
    Dipole Moment (Debye)
         X      -1.3014      Y       0.2339      Z       0.6678
       Tot       1.4814
    Quadrupole Moments (Debye-Ang)
        XX     -87.8090     XY       1.8284     YY     -68.7347
        XZ       2.9050     YZ       2.1009     ZZ     -85.0315

 Total job time:  577.80s(wall), 574.38s(cpu)
        *  Thank you very much for using Q-Chem.  Have a nice day.  *
