 Q-Chem 5.4, Q-Chem, Inc., Pleasanton, CA (2021)
 Q-Chem 5.4.0 for Intel X86 EM64T Linux

User input:
--------------------------------------------------------------
$molecule
0 1
C	0.763228	-3.866725	0.135301
C	-0.603311	-3.703963	-0.106073
C	-1.050423	-2.357056	-0.185286
H	-1.283188	-4.561092	-0.225783
C	0.000000	-1.440664	0.000000
S	1.521021	-2.286957	0.268187
C	-2.483507	-1.978743	-0.438209
H	-3.118798	-2.878678	-0.550153
H	-2.593381	-1.376015	-1.363906
H	-2.903516	-1.375728	0.393798
H	1.354194	-4.783437	0.239740
C	0.000000	0.000000	0.000000
C	0.431829	0.747884	1.099446
C	1.123799	1.946373	0.776721
H	0.247423	0.428497	2.136088
C	1.234147	2.137457	-0.612546
S	0.471221	0.816130	-1.486809
C	1.667694	2.888380	1.814609
H	1.454874	2.519768	2.836676
H	1.222009	3.901210	1.726239
H	2.767675	3.008788	1.726228
H	1.708773	2.959493	-1.161575
$end

$rem
JOBTYPE		SP
EXCHANGE	HF
CORRELATION	pRIMP2
BASIS		cc-pvtz
METHOD		rimp2
AUX_BASIS	rimp2-cc-pvtz
SOLVENT_METHOD	PCM
PURECART	11111
SYMMETRY	false
MEM_TOTAL	110000
SCF_CONVERGENCE = 6
THRESH=10
$end

$solvent
dielectric 4.90
$end
--------------------------------------------------------------

             Standard Nuclear Orientation (Angstroms)
    I     Atom           X                Y                Z
 ----------------------------------------------------------------
    1      C       0.7632280000    -3.8667250000     0.1353010000
    2      C      -0.6033110000    -3.7039630000    -0.1060730000
    3      C      -1.0504230000    -2.3570560000    -0.1852860000
    4      H      -1.2831880000    -4.5610920000    -0.2257830000
    5      C       0.0000000000    -1.4406640000     0.0000000000
    6      S       1.5210210000    -2.2869570000     0.2681870000
    7      C      -2.4835070000    -1.9787430000    -0.4382090000
    8      H      -3.1187980000    -2.8786780000    -0.5501530000
    9      H      -2.5933810000    -1.3760150000    -1.3639060000
   10      H      -2.9035160000    -1.3757280000     0.3937980000
   11      H       1.3541940000    -4.7834370000     0.2397400000
   12      C       0.0000000000     0.0000000000     0.0000000000
   13      C       0.4318290000     0.7478840000     1.0994460000
   14      C       1.1237990000     1.9463730000     0.7767210000
   15      H       0.2474230000     0.4284970000     2.1360880000
   16      C       1.2341470000     2.1374570000    -0.6125460000
   17      S       0.4712210000     0.8161300000    -1.4868090000
   18      C       1.6676940000     2.8883800000     1.8146090000
   19      H       1.4548740000     2.5197680000     2.8366760000
   20      H       1.2220090000     3.9012100000     1.7262390000
   21      H       2.7676750000     3.0087880000     1.7262280000
   22      H       1.7087730000     2.9594930000    -1.1615750000
 ----------------------------------------------------------------

   10   -1179.6695274903      5.11e-07  Convergence criterion met
 Total energy in the final basis set =    -1179.6695274903
        RIMP2         total energy =     -1181.6510783759 a.u.

                    Orbital Energies (a.u.)
 --------------------------------------------------------------

 Alpha MOs
 -- Occupied --
-91.9840 -91.9824 -11.2717 -11.2706 -11.2706 -11.2704 -11.2513 -11.2497
-11.2469 -11.2399 -11.2293 -11.2284  -8.9838  -8.9821  -6.6646  -6.6640
 -6.6635  -6.6629  -6.6624  -6.6618  -1.1800  -1.1486  -1.0408  -1.0216
 -0.9976  -0.9522  -0.9131  -0.8916  -0.7991  -0.7540  -0.7310  -0.6923
 -0.6608  -0.6171  -0.5827  -0.5794  -0.5708  -0.5691  -0.5509  -0.5327
 -0.5285  -0.5184  -0.5083  -0.4917  -0.4797  -0.4645  -0.4623  -0.3498
 -0.3344  -0.3195  -0.3018

          Ground-State Mulliken Net Atomic Charges

     Atom                 Charge (a.u.)
  ----------------------------------------
      1 C                    -0.207881
      2 C                    -0.253776
      3 C                     0.058169
      4 H                     0.182279
      5 C                    -0.059622
      6 S                     0.025735
      7 C                    -0.284664
      8 H                     0.106855
      9 H                     0.109793
     10 H                     0.110104
     11 H                     0.203958
     12 C                    -0.006620
     13 C                    -0.260392
     14 C                     0.043292
     15 H                     0.185687
     16 C                    -0.230572
     17 S                     0.029050
     18 C                    -0.268501
     19 H                     0.102892
     20 H                     0.107664
     21 H                     0.107889
     22 H                     0.198661
  ----------------------------------------
  Sum of atomic charges =     0.000000

                    Cartesian Multipole Moments
 -----------------------------------------------------------------
    Charge (ESU x 10^10)
                 0.0000
    Dipole Moment (Debye)
         X      -0.3369      Y       0.4243      Z       1.2303
       Tot       1.3443
    Quadrupole Moments (Debye-Ang)
        XX     -83.6040     XY       7.0199     YY     -71.9037
        XZ       1.5918     YZ       1.2281     ZZ     -86.3352

 Total job time:  550.77s(wall), 547.10s(cpu)
        *  Thank you very much for using Q-Chem.  Have a nice day.  *
