 Q-Chem 5.4, Q-Chem, Inc., Pleasanton, CA (2021)
 Q-Chem 5.4.0 for Intel X86 EM64T Linux

User input:
--------------------------------------------------------------
$molecule
0 1
C	0.728138	-3.866725	0.265779
C	-0.575726	-3.703963	-0.209225
C	-1.002290	-2.357056	-0.364875
H	-1.224486	-4.561092	-0.445176
C	0.000000	-1.440664	0.000000
S	1.451343	-2.286957	0.528236
C	-2.369683	-1.978743	-0.862808
H	-2.975883	-2.878678	-1.083368
H	-2.317142	-1.376015	-1.793522
H	-2.927787	-1.375728	-0.116375
H	1.291990	-4.783437	0.471251
C	0.000000	0.000000	0.000000
C	0.431829	0.747884	1.099446
C	1.123799	1.946373	0.776721
H	0.247423	0.428497	2.136088
C	1.234147	2.137457	-0.612546
S	0.471221	0.816130	-1.486809
C	1.667694	2.888380	1.814609
H	1.454874	2.519768	2.836676
H	1.222009	3.901210	1.726239
H	2.767675	3.008788	1.726228
H	1.708773	2.959493	-1.161575
$end

$rem
JOBTYPE		SP
EXCHANGE	HF
CORRELATION	pRIMP2
BASIS		cc-pvtz
METHOD		rimp2
AUX_BASIS	rimp2-cc-pvtz
SOLVENT_METHOD	PCM
PURECART	11111
SYMMETRY	false
MEM_TOTAL	110000
SCF_CONVERGENCE = 6
THRESH=10
$end

$solvent
dielectric 4.90
$end
--------------------------------------------------------------

             Standard Nuclear Orientation (Angstroms)
    I     Atom           X                Y                Z
 ----------------------------------------------------------------
    1      C       0.7281380000    -3.8667250000     0.2657790000
    2      C      -0.5757260000    -3.7039630000    -0.2092250000
    3      C      -1.0022900000    -2.3570560000    -0.3648750000
    4      H      -1.2244860000    -4.5610920000    -0.4451760000
    5      C       0.0000000000    -1.4406640000     0.0000000000
    6      S       1.4513430000    -2.2869570000     0.5282360000
    7      C      -2.3696830000    -1.9787430000    -0.8628080000
    8      H      -2.9758830000    -2.8786780000    -1.0833680000
    9      H      -2.3171420000    -1.3760150000    -1.7935220000
   10      H      -2.9277870000    -1.3757280000    -0.1163750000
   11      H       1.2919900000    -4.7834370000     0.4712510000
   12      C       0.0000000000     0.0000000000     0.0000000000
   13      C       0.4318290000     0.7478840000     1.0994460000
   14      C       1.1237990000     1.9463730000     0.7767210000
   15      H       0.2474230000     0.4284970000     2.1360880000
   16      C       1.2341470000     2.1374570000    -0.6125460000
   17      S       0.4712210000     0.8161300000    -1.4868090000
   18      C       1.6676940000     2.8883800000     1.8146090000
   19      H       1.4548740000     2.5197680000     2.8366760000
   20      H       1.2220090000     3.9012100000     1.7262390000
   21      H       2.7676750000     3.0087880000     1.7262280000
   22      H       1.7087730000     2.9594930000    -1.1615750000
 ----------------------------------------------------------------

   10   -1179.6703206258      5.09e-07  Convergence criterion met
 Total energy in the final basis set =    -1179.6703206258
        RIMP2         total energy =     -1181.6520289216 a.u.

                    Orbital Energies (a.u.)
 --------------------------------------------------------------

 Alpha MOs
 -- Occupied --
-91.9841 -91.9830 -11.2723 -11.2711 -11.2705 -11.2701 -11.2516 -11.2494
-11.2466 -11.2402 -11.2293 -11.2285  -8.9839  -8.9826  -6.6647  -6.6641
 -6.6636  -6.6635  -6.6629  -6.6623  -1.1803  -1.1487  -1.0409  -1.0217
 -0.9981  -0.9518  -0.9136  -0.8916  -0.7991  -0.7559  -0.7294  -0.6921
 -0.6609  -0.6171  -0.5827  -0.5795  -0.5715  -0.5692  -0.5510  -0.5333
 -0.5277  -0.5183  -0.5082  -0.4924  -0.4803  -0.4654  -0.4613  -0.3480
 -0.3359  -0.3287  -0.2942

          Ground-State Mulliken Net Atomic Charges

     Atom                 Charge (a.u.)
  ----------------------------------------
      1 C                    -0.210975
      2 C                    -0.252266
      3 C                     0.049644
      4 H                     0.182501
      5 C                    -0.046145
      6 S                     0.025881
      7 C                    -0.285179
      8 H                     0.107204
      9 H                     0.108967
     10 H                     0.110693
     11 H                     0.204004
     12 C                     0.001012
     13 C                    -0.283255
     14 C                     0.051687
     15 H                     0.188346
     16 C                    -0.231774
     17 S                     0.030414
     18 C                    -0.268209
     19 H                     0.102967
     20 H                     0.107728
     21 H                     0.108089
     22 H                     0.198666
  ----------------------------------------
  Sum of atomic charges =     0.000000

                    Cartesian Multipole Moments
 -----------------------------------------------------------------
    Charge (ESU x 10^10)
                -0.0000
    Dipole Moment (Debye)
         X      -0.2684      Y       0.4232      Z       0.9721
       Tot       1.0937
    Quadrupole Moments (Debye-Ang)
        XX     -84.1553     XY       6.9265     YY     -71.8866
        XZ       2.5707     YZ       1.5958     ZZ     -85.7825

 Total job time:  548.96s(wall), 545.45s(cpu)
        *  Thank you very much for using Q-Chem.  Have a nice day.  *
