 Q-Chem 5.4, Q-Chem, Inc., Pleasanton, CA (2021)
 Q-Chem 5.4.0 for Intel X86 EM64T Linux

User input:
--------------------------------------------------------------
$molecule
0 1
C	-0.593324	-3.866725	-0.498788
C	0.469446	-3.703963	0.393517
C	0.817050	-2.357056	0.685674
H	0.998381	-4.561092	0.837128
C	0.000000	-1.440664	0.000000
S	-1.183149	-2.286957	-0.992768
C	1.931676	-1.978743	1.621254
H	2.425882	-2.878678	2.035845
H	1.563980	-1.376015	2.477868
H	2.711417	-1.375728	1.110719
H	-1.052896	-4.783437	-0.884718
C	0.000000	0.000000	0.000000
C	0.661577	0.555087	1.099446
C	1.721724	1.444630	0.776721
H	0.379056	0.318032	2.136088
C	1.890772	1.586449	-0.612546
S	0.721935	0.605744	-1.486809
C	2.555004	2.143805	1.814609
H	2.228946	1.870211	2.836676
H	2.482605	3.247987	1.726239
H	3.629830	1.880735	1.726228
H	2.617927	2.196579	-1.161575
$end

$rem
JOBTYPE		SP
EXCHANGE	HF
CORRELATION	pRIMP2
BASIS		cc-pvtz
METHOD		rimp2
AUX_BASIS	rimp2-cc-pvtz
SOLVENT_METHOD	PCM
PURECART	11111
SYMMETRY	false
MEM_TOTAL	110000
SCF_CONVERGENCE = 6
THRESH=10
$end

$solvent
dielectric 4.90
$end
--------------------------------------------------------------

             Standard Nuclear Orientation (Angstroms)
    I     Atom           X                Y                Z
 ----------------------------------------------------------------
    1      C      -0.5933240000    -3.8667250000    -0.4987880000
    2      C       0.4694460000    -3.7039630000     0.3935170000
    3      C       0.8170500000    -2.3570560000     0.6856740000
    4      H       0.9983810000    -4.5610920000     0.8371280000
    5      C       0.0000000000    -1.4406640000     0.0000000000
    6      S      -1.1831490000    -2.2869570000    -0.9927680000
    7      C       1.9316760000    -1.9787430000     1.6212540000
    8      H       2.4258820000    -2.8786780000     2.0358450000
    9      H       1.5639800000    -1.3760150000     2.4778680000
   10      H       2.7114170000    -1.3757280000     1.1107190000
   11      H      -1.0528960000    -4.7834370000    -0.8847180000
   12      C       0.0000000000     0.0000000000     0.0000000000
   13      C       0.6615770000     0.5550870000     1.0994460000
   14      C       1.7217240000     1.4446300000     0.7767210000
   15      H       0.3790560000     0.3180320000     2.1360880000
   16      C       1.8907720000     1.5864490000    -0.6125460000
   17      S       0.7219350000     0.6057440000    -1.4868090000
   18      C       2.5550040000     2.1438050000     1.8146090000
   19      H       2.2289460000     1.8702110000     2.8366760000
   20      H       2.4826050000     3.2479870000     1.7262390000
   21      H       3.6298300000     1.8807350000     1.7262280000
   22      H       2.6179270000     2.1965790000    -1.1615750000
 ----------------------------------------------------------------

   10   -1179.6355951992      9.55e-07  Convergence criterion met
 Total energy in the final basis set =    -1179.6355951992
        RIMP2         total energy =     -1181.6279652235 a.u.

                    Orbital Energies (a.u.)
 --------------------------------------------------------------

 Alpha MOs
 -- Occupied --
-91.9831 -91.9754 -11.2827 -11.2746 -11.2648 -11.2601 -11.2572 -11.2533
-11.2448 -11.2389 -11.2315 -11.2267  -8.9834  -8.9757  -6.6642  -6.6634
 -6.6630  -6.6566  -6.6560  -6.6555  -1.1867  -1.1469  -1.0445  -1.0223
 -0.9973  -0.9531  -0.9134  -0.8919  -0.7965  -0.7528  -0.7359  -0.6992
 -0.6558  -0.6178  -0.5908  -0.5825  -0.5700  -0.5631  -0.5494  -0.5385
 -0.5256  -0.5253  -0.5094  -0.4883  -0.4726  -0.4634  -0.4533  -0.3495
 -0.3408  -0.3375  -0.2778

          Ground-State Mulliken Net Atomic Charges

     Atom                 Charge (a.u.)
  ----------------------------------------
      1 C                    -0.217517
      2 C                    -0.260689
      3 C                     0.043562
      4 H                     0.182781
      5 C                     0.007232
      6 S                    -0.002171
      7 C                    -0.305418
      8 H                     0.115725
      9 H                     0.107062
     10 H                     0.116366
     11 H                     0.202102
     12 C                    -0.114886
     13 C                    -0.177379
     14 C                     0.007344
     15 H                     0.193149
     16 C                    -0.192870
     17 S                     0.039947
     18 C                    -0.272718
     19 H                     0.104154
     20 H                     0.115123
     21 H                     0.107208
     22 H                     0.201896
  ----------------------------------------
  Sum of atomic charges =     0.000000

                    Cartesian Multipole Moments
 -----------------------------------------------------------------
    Charge (ESU x 10^10)
                -0.0000
    Dipole Moment (Debye)
         X       3.4536      Y       0.8128      Z       2.6550
       Tot       4.4314
    Quadrupole Moments (Debye-Ang)
        XX     -81.8680     XY       4.3270     YY     -77.1665
        XZ       3.5050     YZ      -0.9079     ZZ     -83.7532

 Total job time:  600.50s(wall), 596.92s(cpu)
        *  Thank you very much for using Q-Chem.  Have a nice day.  *
