 Q-Chem 5.4, Q-Chem, Inc., Pleasanton, CA (2021)
 Q-Chem 5.4.0 for Intel X86 EM64T Linux

User input:
--------------------------------------------------------------
$molecule
0 1
C	0.133897	-3.866725	0.763475
C	-0.106669	-3.703963	-0.603206
C	-0.185154	-2.357056	-1.050446
H	-0.226709	-4.561092	-1.283024
C	-0.000000	-1.440664	-0.000000
S	0.268206	-2.286957	1.521018
C	-0.437628	-1.978743	-2.483610
H	-0.549717	-2.878678	-3.118875
H	0.394664	-1.376015	-2.903464
H	-1.363110	-1.375728	-2.593726
H	0.237880	-4.783437	1.354522
C	0.000000	0.000000	0.000000
C	0.555137	0.661535	1.099446
C	1.444710	1.721658	0.776721
H	0.318072	0.379023	2.136088
C	1.586563	1.890676	-0.612546
S	0.605781	0.721904	-1.486809
C	2.143920	2.554907	1.814609
H	1.870325	2.228851	2.836676
H	1.880882	3.629742	1.726239
H	3.248098	2.482476	1.726228
H	2.196723	2.617806	-1.161575
$end

$rem
JOBTYPE		SP
EXCHANGE	HF
CORRELATION	pRIMP2
BASIS		cc-pvtz
METHOD		rimp2
AUX_BASIS	rimp2-cc-pvtz
SOLVENT_METHOD	PCM
PURECART	11111
SYMMETRY	false
MEM_TOTAL	110000
SCF_CONVERGENCE = 6
THRESH=10
$end

$solvent
dielectric 4.90
$end
--------------------------------------------------------------

             Standard Nuclear Orientation (Angstroms)
    I     Atom           X                Y                Z
 ----------------------------------------------------------------
    1      C       0.1338970000    -3.8667250000     0.7634750000
    2      C      -0.1066690000    -3.7039630000    -0.6032060000
    3      C      -0.1851540000    -2.3570560000    -1.0504460000
    4      H      -0.2267090000    -4.5610920000    -1.2830240000
    5      C       0.0000000000    -1.4406640000     0.0000000000
    6      S       0.2682060000    -2.2869570000     1.5210180000
    7      C      -0.4376280000    -1.9787430000    -2.4836100000
    8      H      -0.5497170000    -2.8786780000    -3.1188750000
    9      H       0.3946640000    -1.3760150000    -2.9034640000
   10      H      -1.3631100000    -1.3757280000    -2.5937260000
   11      H       0.2378800000    -4.7834370000     1.3545220000
   12      C       0.0000000000     0.0000000000     0.0000000000
   13      C       0.5551370000     0.6615350000     1.0994460000
   14      C       1.4447100000     1.7216580000     0.7767210000
   15      H       0.3180720000     0.3790230000     2.1360880000
   16      C       1.5865630000     1.8906760000    -0.6125460000
   17      S       0.6057810000     0.7219040000    -1.4868090000
   18      C       2.1439200000     2.5549070000     1.8146090000
   19      H       1.8703250000     2.2288510000     2.8366760000
   20      H       1.8808820000     3.6297420000     1.7262390000
   21      H       3.2480980000     2.4824760000     1.7262280000
   22      H       2.1967230000     2.6178060000    -1.1615750000
 ----------------------------------------------------------------

   10   -1179.6524758151      7.02e-07  Convergence criterion met
 Total energy in the final basis set =    -1179.6524758151
        RIMP2         total energy =     -1181.6416765590 a.u.

                    Orbital Energies (a.u.)
 --------------------------------------------------------------

 Alpha MOs
 -- Occupied --
-91.9845 -91.9798 -11.2779 -11.2746 -11.2734 -11.2647 -11.2543 -11.2507
-11.2441 -11.2404 -11.2302 -11.2268  -8.9848  -8.9799  -6.6656  -6.6650
 -6.6644  -6.6609  -6.6603  -6.6597  -1.1855  -1.1482  -1.0444  -1.0235
 -1.0000  -0.9505  -0.9138  -0.8946  -0.7979  -0.7660  -0.7222  -0.6936
 -0.6595  -0.6175  -0.5855  -0.5826  -0.5779  -0.5701  -0.5518  -0.5344
 -0.5249  -0.5193  -0.5115  -0.4954  -0.4797  -0.4655  -0.4479  -0.3684
 -0.3444  -0.3382  -0.2648

          Ground-State Mulliken Net Atomic Charges

     Atom                 Charge (a.u.)
  ----------------------------------------
      1 C                    -0.228320
      2 C                    -0.247891
      3 C                     0.036802
      4 H                     0.183127
      5 C                    -0.016066
      6 S                    -0.005021
      7 C                    -0.315946
      8 H                     0.113004
      9 H                     0.112167
     10 H                     0.116645
     11 H                     0.203846
     12 C                    -0.000323
     13 C                    -0.235649
     14 C                     0.034190
     15 H                     0.182988
     16 C                    -0.229976
     17 S                     0.042308
     18 C                    -0.266581
     19 H                     0.103307
     20 H                     0.108674
     21 H                     0.108301
     22 H                     0.200413
  ----------------------------------------
  Sum of atomic charges =     0.000000

                    Cartesian Multipole Moments
 -----------------------------------------------------------------
    Charge (ESU x 10^10)
                -0.0000
    Dipole Moment (Debye)
         X       1.3798      Y       0.8001      Z      -0.0622
       Tot       1.5962
    Quadrupole Moments (Debye-Ang)
        XX     -87.5805     XY       6.2009     YY     -75.0291
        XZ       1.5505     YZ       3.1579     ZZ     -80.0816

 Total job time:  578.71s(wall), 574.50s(cpu)
        *  Thank you very much for using Q-Chem.  Have a nice day.  *
