 Q-Chem 5.4, Q-Chem, Inc., Pleasanton, CA (2021)
 Q-Chem 5.4.0 for Intel X86 EM64T Linux

User input:
--------------------------------------------------------------
$molecule
0 1
C	-0.670924	-3.866725	-0.388181
C	0.530648	-3.703963	0.306020
C	0.923703	-2.357056	0.533378
H	1.128579	-4.561092	0.651043
C	0.000000	-1.440664	0.000000
S	-1.337567	-2.286957	-0.772234
C	2.183857	-1.978743	1.261192
H	2.742548	-2.878678	1.583666
H	1.970497	-1.376015	2.168641
H	2.863099	-1.375728	0.623012
H	-1.190530	-4.783437	-0.688443
C	0.000000	0.000000	0.000000
C	0.661577	0.555087	1.099446
C	1.721724	1.444630	0.776721
H	0.379056	0.318032	2.136088
C	1.890772	1.586449	-0.612546
S	0.721935	0.605744	-1.486809
C	2.555004	2.143805	1.814609
H	2.228946	1.870211	2.836676
H	2.482605	3.247987	1.726239
H	3.629830	1.880735	1.726228
H	2.617927	2.196579	-1.161575
$end

$rem
JOBTYPE		SP
EXCHANGE	HF
CORRELATION	pRIMP2
BASIS		cc-pvtz
METHOD		rimp2
AUX_BASIS	rimp2-cc-pvtz
SOLVENT_METHOD	PCM
PURECART	11111
SYMMETRY	false
MEM_TOTAL	110000
SCF_CONVERGENCE = 6
THRESH=10
$end

$solvent
dielectric 4.90
$end
--------------------------------------------------------------

             Standard Nuclear Orientation (Angstroms)
    I     Atom           X                Y                Z
 ----------------------------------------------------------------
    1      C      -0.6709240000    -3.8667250000    -0.3881810000
    2      C       0.5306480000    -3.7039630000     0.3060200000
    3      C       0.9237030000    -2.3570560000     0.5333780000
    4      H       1.1285790000    -4.5610920000     0.6510430000
    5      C       0.0000000000    -1.4406640000     0.0000000000
    6      S      -1.3375670000    -2.2869570000    -0.7722340000
    7      C       2.1838570000    -1.9787430000     1.2611920000
    8      H       2.7425480000    -2.8786780000     1.5836660000
    9      H       1.9704970000    -1.3760150000     2.1686410000
   10      H       2.8630990000    -1.3757280000     0.6230120000
   11      H      -1.1905300000    -4.7834370000    -0.6884430000
   12      C       0.0000000000     0.0000000000     0.0000000000
   13      C       0.6615770000     0.5550870000     1.0994460000
   14      C       1.7217240000     1.4446300000     0.7767210000
   15      H       0.3790560000     0.3180320000     2.1360880000
   16      C       1.8907720000     1.5864490000    -0.6125460000
   17      S       0.7219350000     0.6057440000    -1.4868090000
   18      C       2.5550040000     2.1438050000     1.8146090000
   19      H       2.2289460000     1.8702110000     2.8366760000
   20      H       2.4826050000     3.2479870000     1.7262390000
   21      H       3.6298300000     1.8807350000     1.7262280000
   22      H       2.6179270000     2.1965790000    -1.1615750000
 ----------------------------------------------------------------

   10   -1179.6369710324      9.43e-07  Convergence criterion met
 Total energy in the final basis set =    -1179.6369710324
        RIMP2         total energy =     -1181.6292498524 a.u.

                    Orbital Energies (a.u.)
 --------------------------------------------------------------

 Alpha MOs
 -- Occupied --
-91.9832 -91.9754 -11.2826 -11.2734 -11.2649 -11.2591 -11.2573 -11.2528
-11.2452 -11.2387 -11.2313 -11.2266  -8.9835  -8.9757  -6.6643  -6.6635
 -6.6631  -6.6566  -6.6560  -6.6554  -1.1861  -1.1467  -1.0440  -1.0209
 -0.9978  -0.9529  -0.9132  -0.8911  -0.7961  -0.7513  -0.7375  -0.6976
 -0.6562  -0.6182  -0.5880  -0.5820  -0.5703  -0.5654  -0.5496  -0.5366
 -0.5256  -0.5245  -0.5106  -0.4883  -0.4714  -0.4636  -0.4529  -0.3472
 -0.3392  -0.3337  -0.2835

          Ground-State Mulliken Net Atomic Charges

     Atom                 Charge (a.u.)
  ----------------------------------------
      1 C                    -0.217949
      2 C                    -0.260165
      3 C                     0.046640
      4 H                     0.182779
      5 C                     0.002998
      6 S                     0.001152
      7 C                    -0.307227
      8 H                     0.116487
      9 H                     0.109595
     10 H                     0.116534
     11 H                     0.201585
     12 C                    -0.118857
     13 C                    -0.184516
     14 C                     0.014969
     15 H                     0.195007
     16 C                    -0.193015
     17 S                     0.039250
     18 C                    -0.272618
     19 H                     0.103889
     20 H                     0.114756
     21 H                     0.106821
     22 H                     0.201886
  ----------------------------------------
  Sum of atomic charges =     0.000000

                    Cartesian Multipole Moments
 -----------------------------------------------------------------
    Charge (ESU x 10^10)
                -0.0000
    Dipole Moment (Debye)
         X       3.6117      Y       0.7864      Z       2.4116
       Tot       4.4135
    Quadrupole Moments (Debye-Ang)
        XX     -80.9515     XY       4.0407     YY     -77.1646
        XZ       3.1433     YZ      -0.5857     ZZ     -84.7060

 Total job time:  602.59s(wall), 599.39s(cpu)
        *  Thank you very much for using Q-Chem.  Have a nice day.  *
