 Q-Chem 5.4, Q-Chem, Inc., Pleasanton, CA (2021)
 Q-Chem 5.4.0 for Intel X86 EM64T Linux

User input:
--------------------------------------------------------------
$molecule
0 1
C	-0.728625	-3.866725	0.264439
C	0.575519	-3.703963	-0.209794
C	1.002336	-2.357056	-0.364749
H	1.224165	-4.561092	-0.446060
C	0.000000	-1.440664	0.000000
S	-1.451336	-2.286957	0.528253
C	2.369885	-1.978743	-0.862253
H	2.976034	-2.878678	-1.082953
H	2.927887	-1.376015	-0.115513
H	2.317620	-1.375728	-1.792797
H	-1.292636	-4.783437	0.469476
C	0.000000	0.000000	0.000000
C	0.661577	0.555087	1.099446
C	1.721724	1.444630	0.776721
H	0.379056	0.318032	2.136088
C	1.890772	1.586449	-0.612546
S	0.721935	0.605744	-1.486809
C	2.555004	2.143805	1.814609
H	2.228946	1.870211	2.836676
H	2.482605	3.247987	1.726239
H	3.629830	1.880735	1.726228
H	2.617927	2.196579	-1.161575
$end

$rem
JOBTYPE		SP
EXCHANGE	HF
CORRELATION	pRIMP2
BASIS		cc-pvtz
METHOD		rimp2
AUX_BASIS	rimp2-cc-pvtz
SOLVENT_METHOD	PCM
PURECART	11111
SYMMETRY	false
MEM_TOTAL	110000
SCF_CONVERGENCE = 6
THRESH=10
$end

$solvent
dielectric 4.90
$end
--------------------------------------------------------------

             Standard Nuclear Orientation (Angstroms)
    I     Atom           X                Y                Z
 ----------------------------------------------------------------
    1      C      -0.7286250000    -3.8667250000     0.2644390000
    2      C       0.5755190000    -3.7039630000    -0.2097940000
    3      C       1.0023360000    -2.3570560000    -0.3647490000
    4      H       1.2241650000    -4.5610920000    -0.4460600000
    5      C       0.0000000000    -1.4406640000     0.0000000000
    6      S      -1.4513360000    -2.2869570000     0.5282530000
    7      C       2.3698850000    -1.9787430000    -0.8622530000
    8      H       2.9760340000    -2.8786780000    -1.0829530000
    9      H       2.9278870000    -1.3760150000    -0.1155130000
   10      H       2.3176200000    -1.3757280000    -1.7927970000
   11      H      -1.2926360000    -4.7834370000     0.4694760000
   12      C       0.0000000000     0.0000000000     0.0000000000
   13      C       0.6615770000     0.5550870000     1.0994460000
   14      C       1.7217240000     1.4446300000     0.7767210000
   15      H       0.3790560000     0.3180320000     2.1360880000
   16      C       1.8907720000     1.5864490000    -0.6125460000
   17      S       0.7219350000     0.6057440000    -1.4868090000
   18      C       2.5550040000     2.1438050000     1.8146090000
   19      H       2.2289460000     1.8702110000     2.8366760000
   20      H       2.4826050000     3.2479870000     1.7262390000
   21      H       3.6298300000     1.8807350000     1.7262280000
   22      H       2.6179270000     2.1965790000    -1.1615750000
 ----------------------------------------------------------------

   10   -1179.6324375990      9.31e-07  Convergence criterion met
 Total energy in the final basis set =    -1179.6324375990
        RIMP2         total energy =     -1181.6263840609 a.u.

                    Orbital Energies (a.u.)
 --------------------------------------------------------------

 Alpha MOs
 -- Occupied --
-91.9830 -91.9759 -11.2824 -11.2747 -11.2621 -11.2605 -11.2593 -11.2535
-11.2422 -11.2380 -11.2312 -11.2221  -8.9834  -8.9759  -6.6642  -6.6634
 -6.6631  -6.6569  -6.6562  -6.6557  -1.1863  -1.1462  -1.0445  -1.0170
 -0.9999  -0.9527  -0.9117  -0.8906  -0.7954  -0.7551  -0.7341  -0.6946
 -0.6561  -0.6191  -0.5839  -0.5816  -0.5735  -0.5678  -0.5491  -0.5354
 -0.5252  -0.5223  -0.5121  -0.4897  -0.4665  -0.4655  -0.4477  -0.3529
 -0.3372  -0.3233  -0.2878

          Ground-State Mulliken Net Atomic Charges

     Atom                 Charge (a.u.)
  ----------------------------------------
      1 C                    -0.224323
      2 C                    -0.256786
      3 C                     0.042399
      4 H                     0.182803
      5 C                    -0.000080
      6 S                    -0.000792
      7 C                    -0.310138
      8 H                     0.113023
      9 H                     0.112991
     10 H                     0.118082
     11 H                     0.200166
     12 C                    -0.117094
     13 C                    -0.139577
     14 C                    -0.011850
     15 H                     0.188841
     16 C                    -0.181256
     17 S                     0.032813
     18 C                    -0.268090
     19 H                     0.103571
     20 H                     0.109020
     21 H                     0.105915
     22 H                     0.200362
  ----------------------------------------
  Sum of atomic charges =     0.000000

                    Cartesian Multipole Moments
 -----------------------------------------------------------------
    Charge (ESU x 10^10)
                -0.0000
    Dipole Moment (Debye)
         X       3.7279      Y       1.0064      Z       1.0035
       Tot       3.9896
    Quadrupole Moments (Debye-Ang)
        XX     -80.4228     XY       4.0046     YY     -78.2599
        XZ      -1.4748     YZ       1.5299     ZZ     -85.1540

 Total job time:  599.62s(wall), 596.09s(cpu)
        *  Thank you very much for using Q-Chem.  Have a nice day.  *
