 Q-Chem 5.4, Q-Chem, Inc., Pleasanton, CA (2021)
 Q-Chem 5.4.0 for Intel X86 EM64T Linux

User input:
--------------------------------------------------------------
$molecule
0 1
C	-0.498788	-3.866725	0.593324
C	0.393517	-3.703963	-0.469446
C	0.685674	-2.357056	-0.817050
H	0.837128	-4.561092	-0.998381
C	-0.000000	-1.440664	-0.000000
S	-0.992768	-2.286957	1.183149
C	1.621254	-1.978743	-1.931676
H	2.035845	-2.878678	-2.425882
H	2.477868	-1.376015	-1.563980
H	1.110719	-1.375728	-2.711417
H	-0.884718	-4.783437	1.052896
C	0.000000	0.000000	0.000000
C	0.555137	0.661535	1.099446
C	1.444710	1.721658	0.776721
H	0.318072	0.379023	2.136088
C	1.586563	1.890676	-0.612546
S	0.605781	0.721904	-1.486809
C	2.143920	2.554907	1.814609
H	1.870325	2.228851	2.836676
H	1.880882	3.629742	1.726239
H	3.248098	2.482476	1.726228
H	2.196723	2.617806	-1.161575
$end

$rem
JOBTYPE		SP
EXCHANGE	HF
CORRELATION	pRIMP2
BASIS		cc-pvtz
METHOD		rimp2
AUX_BASIS	rimp2-cc-pvtz
SOLVENT_METHOD	PCM
PURECART	11111
SYMMETRY	false
MEM_TOTAL	110000
SCF_CONVERGENCE = 6
THRESH=10
$end

$solvent
dielectric 4.90
$end
--------------------------------------------------------------

             Standard Nuclear Orientation (Angstroms)
    I     Atom           X                Y                Z
 ----------------------------------------------------------------
    1      C      -0.4987880000    -3.8667250000     0.5933240000
    2      C       0.3935170000    -3.7039630000    -0.4694460000
    3      C       0.6856740000    -2.3570560000    -0.8170500000
    4      H       0.8371280000    -4.5610920000    -0.9983810000
    5      C       0.0000000000    -1.4406640000     0.0000000000
    6      S      -0.9927680000    -2.2869570000     1.1831490000
    7      C       1.6212540000    -1.9787430000    -1.9316760000
    8      H       2.0358450000    -2.8786780000    -2.4258820000
    9      H       2.4778680000    -1.3760150000    -1.5639800000
   10      H       1.1107190000    -1.3757280000    -2.7114170000
   11      H      -0.8847180000    -4.7834370000     1.0528960000
   12      C       0.0000000000     0.0000000000     0.0000000000
   13      C       0.5551370000     0.6615350000     1.0994460000
   14      C       1.4447100000     1.7216580000     0.7767210000
   15      H       0.3180720000     0.3790230000     2.1360880000
   16      C       1.5865630000     1.8906760000    -0.6125460000
   17      S       0.6057810000     0.7219040000    -1.4868090000
   18      C       2.1439200000     2.5549070000     1.8146090000
   19      H       1.8703250000     2.2288510000     2.8366760000
   20      H       1.8808820000     3.6297420000     1.7262390000
   21      H       3.2480980000     2.4824760000     1.7262280000
   22      H       2.1967230000     2.6178060000    -1.1615750000
 ----------------------------------------------------------------

   10   -1179.6447366815      7.50e-07  Convergence criterion met
 Total energy in the final basis set =    -1179.6447366815
        RIMP2         total energy =     -1181.6353859003 a.u.

                    Orbital Energies (a.u.)
 --------------------------------------------------------------

 Alpha MOs
 -- Occupied --
-91.9822 -91.9787 -11.2778 -11.2754 -11.2704 -11.2640 -11.2527 -11.2516
-11.2437 -11.2398 -11.2300 -11.2231  -8.9828  -8.9788  -6.6635  -6.6629
 -6.6625  -6.6597  -6.6592  -6.6585  -1.1840  -1.1474  -1.0438  -1.0205
 -0.9984  -0.9524  -0.9109  -0.8939  -0.7960  -0.7611  -0.7260  -0.6953
 -0.6575  -0.6173  -0.5839  -0.5804  -0.5758  -0.5689  -0.5502  -0.5343
 -0.5261  -0.5208  -0.5118  -0.4940  -0.4734  -0.4614  -0.4500  -0.3622
 -0.3391  -0.3334  -0.2721

          Ground-State Mulliken Net Atomic Charges

     Atom                 Charge (a.u.)
  ----------------------------------------
      1 C                    -0.223588
      2 C                    -0.253795
      3 C                     0.032851
      4 H                     0.183782
      5 C                    -0.014309
      6 S                    -0.000166
      7 C                    -0.289182
      8 H                     0.104810
      9 H                     0.116701
     10 H                     0.110429
     11 H                     0.202438
     12 C                    -0.055830
     13 C                    -0.172369
     14 C                     0.000198
     15 H                     0.188494
     16 C                    -0.208022
     17 S                     0.028101
     18 C                    -0.267695
     19 H                     0.103084
     20 H                     0.107772
     21 H                     0.106572
     22 H                     0.199725
  ----------------------------------------
  Sum of atomic charges =     0.000000

                    Cartesian Multipole Moments
 -----------------------------------------------------------------
    Charge (ESU x 10^10)
                -0.0000
    Dipole Moment (Debye)
         X       2.6854      Y       0.9158      Z       0.1934
       Tot       2.8439
    Quadrupole Moments (Debye-Ang)
        XX     -85.2985     XY       4.4206     YY     -75.9496
        XZ      -2.6285     YZ       2.3582     ZZ     -82.4445

 Total job time:  585.63s(wall), 582.04s(cpu)
        *  Thank you very much for using Q-Chem.  Have a nice day.  *
