 Q-Chem 5.4, Q-Chem, Inc., Pleasanton, CA (2021)
 Q-Chem 5.4.0 for Intel X86 EM64T Linux

User input:
--------------------------------------------------------------
$molecule
0 1
C	0.388181	-3.866725	-0.670924
C	-0.306020	-3.703963	0.530648
C	-0.533378	-2.357056	0.923703
H	-0.651043	-4.561092	1.128579
C	-0.000000	-1.440664	-0.000000
S	0.772234	-2.286957	-1.337567
C	-1.261192	-1.978743	2.183857
H	-1.583666	-2.878678	2.742548
H	-2.168641	-1.376015	1.970497
H	-0.623012	-1.375728	2.863099
H	0.688443	-4.783437	-1.190530
C	0.000000	0.000000	0.000000
C	0.075300	0.860311	1.099446
C	0.195935	2.238951	0.776721
H	0.043151	0.492916	2.136088
C	0.215188	2.458766	-0.612546
S	0.082160	0.938811	-1.486809
C	0.290762	3.322559	1.814609
H	0.253664	2.898542	2.836676
H	-0.541206	4.052140	1.726239
H	1.236797	3.896558	1.726228
H	0.297938	3.404370	-1.161575
$end

$rem
JOBTYPE		SP
EXCHANGE	HF
CORRELATION	pRIMP2
BASIS		cc-pvtz
METHOD		rimp2
AUX_BASIS	rimp2-cc-pvtz
SOLVENT_METHOD	PCM
PURECART	11111
SYMMETRY	false
MEM_TOTAL	110000
SCF_CONVERGENCE = 6
THRESH=10
$end

$solvent
dielectric 4.90
$end
--------------------------------------------------------------

             Standard Nuclear Orientation (Angstroms)
    I     Atom           X                Y                Z
 ----------------------------------------------------------------
    1      C       0.3881810000    -3.8667250000    -0.6709240000
    2      C      -0.3060200000    -3.7039630000     0.5306480000
    3      C      -0.5333780000    -2.3570560000     0.9237030000
    4      H      -0.6510430000    -4.5610920000     1.1285790000
    5      C       0.0000000000    -1.4406640000     0.0000000000
    6      S       0.7722340000    -2.2869570000    -1.3375670000
    7      C      -1.2611920000    -1.9787430000     2.1838570000
    8      H      -1.5836660000    -2.8786780000     2.7425480000
    9      H      -2.1686410000    -1.3760150000     1.9704970000
   10      H      -0.6230120000    -1.3757280000     2.8630990000
   11      H       0.6884430000    -4.7834370000    -1.1905300000
   12      C       0.0000000000     0.0000000000     0.0000000000
   13      C       0.0753000000     0.8603110000     1.0994460000
   14      C       0.1959350000     2.2389510000     0.7767210000
   15      H       0.0431510000     0.4929160000     2.1360880000
   16      C       0.2151880000     2.4587660000    -0.6125460000
   17      S       0.0821600000     0.9388110000    -1.4868090000
   18      C       0.2907620000     3.3225590000     1.8146090000
   19      H       0.2536640000     2.8985420000     2.8366760000
   20      H      -0.5412060000     4.0521400000     1.7262390000
   21      H       1.2367970000     3.8965580000     1.7262280000
   22      H       0.2979380000     3.4043700000    -1.1615750000
 ----------------------------------------------------------------

   10   -1179.6859425259      5.20e-07  Convergence criterion met
 Total energy in the final basis set =    -1179.6859425259
        RIMP2         total energy =     -1181.6653919717 a.u.

                    Orbital Energies (a.u.)
 --------------------------------------------------------------

 Alpha MOs
 -- Occupied --
-91.9863 -91.9855 -11.2831 -11.2776 -11.2722 -11.2640 -11.2535 -11.2523
-11.2436 -11.2407 -11.2309 -11.2294  -8.9860  -8.9853  -6.6669  -6.6664
 -6.6662  -6.6657  -6.6657  -6.6651  -1.1810  -1.1503  -1.0418  -1.0264
 -0.9962  -0.9564  -0.9138  -0.8942  -0.8032  -0.7558  -0.7285  -0.6992
 -0.6624  -0.6147  -0.5886  -0.5814  -0.5702  -0.5642  -0.5523  -0.5383
 -0.5300  -0.5225  -0.5058  -0.4908  -0.4887  -0.4751  -0.4543  -0.3640
 -0.3447  -0.3391  -0.2734

          Ground-State Mulliken Net Atomic Charges

     Atom                 Charge (a.u.)
  ----------------------------------------
      1 C                    -0.215519
      2 C                    -0.250159
      3 C                     0.054965
      4 H                     0.184290
      5 C                    -0.041066
      6 S                     0.013130
      7 C                    -0.302574
      8 H                     0.113889
      9 H                     0.116770
     10 H                     0.106842
     11 H                     0.206210
     12 C                     0.019769
     13 C                    -0.232009
     14 C                     0.017923
     15 H                     0.193182
     16 C                    -0.243655
     17 S                     0.011815
     18 C                    -0.272377
     19 H                     0.101783
     20 H                     0.108537
     21 H                     0.109032
     22 H                     0.199222
  ----------------------------------------
  Sum of atomic charges =     0.000000

                    Cartesian Multipole Moments
 -----------------------------------------------------------------
    Charge (ESU x 10^10)
                -0.0000
    Dipole Moment (Debye)
         X      -0.5821      Y       0.1895      Z       2.7256
       Tot       2.7935
    Quadrupole Moments (Debye-Ang)
        XX     -91.0154     XY       2.0056     YY     -68.4907
        XZ      -2.7837     YZ      -0.8323     ZZ     -81.7597

 Total job time:  563.50s(wall), 555.05s(cpu)
        *  Thank you very much for using Q-Chem.  Have a nice day.  *
