 Q-Chem 5.4, Q-Chem, Inc., Pleasanton, CA (2021)
 Q-Chem 5.4.0 for Intel X86 EM64T Linux

User input:
--------------------------------------------------------------
$molecule
0 1
C	-3.419064	-1.965296	-0.000154
C	-2.382119	-2.901739	0.000138
C	-1.069838	-2.355606	0.000300
H	-2.571830	-3.985825	0.000034
C	-1.083549	-0.949439	0.000188
S	-2.737920	-0.345537	0.000416
C	0.173738	-3.200793	0.000377
H	-0.077994	-4.279050	0.000375
H	0.804435	-3.005830	0.892834
H	0.804526	-3.005852	-0.892021
H	-4.504038	-2.118072	-0.000224
C	0.000000	0.000000	0.000000
C	-0.075037	1.396050	-0.000003
C	1.178509	2.065358	-0.000187
H	-1.035595	1.932678	0.000111
C	2.260036	1.165885	-0.000291
S	1.688645	-0.497187	-0.000203
C	1.312627	3.562830	-0.000233
H	0.318926	4.051038	-0.000107
H	1.862843	3.927534	-0.892714
H	1.863087	3.927568	0.892083
H	3.335785	1.378512	-0.000433
$end

$rem
JOBTYPE		SP
EXCHANGE	HF
CORRELATION	pRIMP2
BASIS		cc-pvtz
METHOD		rimp2
AUX_BASIS	rimp2-cc-pvtz
SOLVENT_METHOD	PCM
PURECART	11111
SYMMETRY	false
MEM_TOTAL	110000
SCF_CONVERGENCE = 6
THRESH=10
$end

$solvent
dielectric 4.90
$end
--------------------------------------------------------------

 Q-Chem 5.4, Q-Chem, Inc., Pleasanton, CA (2021)
 Q-Chem 5.4.0 for Intel X86 EM64T Linux

User input:
--------------------------------------------------------------
$molecule
0 1
C	-3.419064	-1.965296	-0.000154
C	-2.382119	-2.901739	0.000138
C	-1.069838	-2.355606	0.000300
H	-2.571830	-3.985825	0.000034
C	-1.083549	-0.949439	0.000188
S	-2.737920	-0.345537	0.000416
C	0.173738	-3.200793	0.000377
H	-0.077994	-4.279050	0.000375
H	0.804435	-3.005830	0.892834
H	0.804526	-3.005852	-0.892021
H	-4.504038	-2.118072	-0.000224
C	0.000000	0.000000	0.000000
C	-0.075037	1.396050	-0.000003
C	1.178509	2.065358	-0.000187
H	-1.035595	1.932678	0.000111
C	2.260036	1.165885	-0.000291
S	1.688645	-0.497187	-0.000203
C	1.312627	3.562830	-0.000233
H	0.318926	4.051038	-0.000107
H	1.862843	3.927534	-0.892714
H	1.863087	3.927568	0.892083
H	3.335785	1.378512	-0.000433
$end

$rem
JOBTYPE		SP
EXCHANGE	HF
CORRELATION	pRIMP2
BASIS		cc-pvtz
METHOD		rimp2
AUX_BASIS	rimp2-cc-pvtz
SOLVENT_METHOD	PCM
PURECART	11111
SYMMETRY	false
MEM_TOTAL	110000
SCF_CONVERGENCE = 6
THRESH=10
$end

$solvent
dielectric 4.90
$end
--------------------------------------------------------------

             Standard Nuclear Orientation (Angstroms)
    I     Atom           X                Y                Z
 ----------------------------------------------------------------
    1      C      -3.4190640000    -1.9652960000    -0.0001540000
    2      C      -2.3821190000    -2.9017390000     0.0001380000
    3      C      -1.0698380000    -2.3556060000     0.0003000000
    4      H      -2.5718300000    -3.9858250000     0.0000340000
    5      C      -1.0835490000    -0.9494390000     0.0001880000
    6      S      -2.7379200000    -0.3455370000     0.0004160000
    7      C       0.1737380000    -3.2007930000     0.0003770000
    8      H      -0.0779940000    -4.2790500000     0.0003750000
    9      H       0.8044350000    -3.0058300000     0.8928340000
   10      H       0.8045260000    -3.0058520000    -0.8920210000
   11      H      -4.5040380000    -2.1180720000    -0.0002240000
   12      C       0.0000000000     0.0000000000     0.0000000000
   13      C      -0.0750370000     1.3960500000    -0.0000030000
   14      C       1.1785090000     2.0653580000    -0.0001870000
   15      H      -1.0355950000     1.9326780000     0.0001110000
   16      C       2.2600360000     1.1658850000    -0.0002910000
   17      S       1.6886450000    -0.4971870000    -0.0002030000
   18      C       1.3126270000     3.5628300000    -0.0002330000
   19      H       0.3189260000     4.0510380000    -0.0001070000
   20      H       1.8628430000     3.9275340000    -0.8927140000
   21      H       1.8630870000     3.9275680000     0.8920830000
   22      H       3.3357850000     1.3785120000    -0.0004330000
 ----------------------------------------------------------------

   10   -1179.6866975282      5.48e-07  Convergence criterion met
 Total energy in the final basis set =    -1179.6866975282
        RIMP2         total energy =     -1181.6670876149 a.u.

                    Orbital Energies (a.u.)
 --------------------------------------------------------------

 Alpha MOs
 -- Occupied --
-91.9852 -91.9850 -11.2847 -11.2786 -11.2735 -11.2612 -11.2548 -11.2522
-11.2439 -11.2391 -11.2307 -11.2288  -8.9850  -8.9849  -6.6659  -6.6658
 -6.6653  -6.6653  -6.6647  -6.6646  -1.1816  -1.1501  -1.0423  -1.0263
 -0.9989  -0.9525  -0.9155  -0.8953  -0.8007  -0.7658  -0.7192  -0.6962
 -0.6638  -0.6157  -0.5847  -0.5828  -0.5772  -0.5696  -0.5533  -0.5344
 -0.5231  -0.5213  -0.5116  -0.4964  -0.4912  -0.4677  -0.4505  -0.3717
 -0.3438  -0.3404  -0.2682

          Ground-State Mulliken Net Atomic Charges

     Atom                 Charge (a.u.)
  ----------------------------------------
      1 C                    -0.210826
      2 C                    -0.257340
      3 C                     0.053329
      4 H                     0.185274
      5 C                    -0.020289
      6 S                     0.005648
      7 C                    -0.323229
      8 H                     0.119402
      9 H                     0.116014
     10 H                     0.115993
     11 H                     0.208191
     12 C                     0.065137
     13 C                    -0.276967
     14 C                     0.035948
     15 H                     0.176150
     16 C                    -0.260973
     17 S                     0.020817
     18 C                    -0.271438
     19 H                     0.102760
     20 H                     0.108582
     21 H                     0.108582
     22 H                     0.199236
  ----------------------------------------
  Sum of atomic charges =     0.000000

                    Cartesian Multipole Moments
 -----------------------------------------------------------------
    Charge (ESU x 10^10)
                -0.0000
    Dipole Moment (Debye)
         X       0.1064      Y      -0.1668      Z      -0.0000
       Tot       0.1979
    Quadrupole Moments (Debye-Ang)
        XX     -76.7086     XY       6.0764     YY     -71.4900
        XZ      -0.0002     YZ      -0.0003     ZZ     -92.7851

 Total job time:  586.57s(wall), 582.88s(cpu)
        *  Thank you very much for using Q-Chem.  Have a nice day.  *
