 Q-Chem 5.4, Q-Chem, Inc., Pleasanton, CA (2021)
 Q-Chem 5.4.0 for Intel X86 EM64T Linux

User input:
--------------------------------------------------------------
$molecule
0 1
C	0.133897	-3.866725	0.763475
C	-0.106669	-3.703963	-0.603206
C	-0.185154	-2.357056	-1.050446
H	-0.226709	-4.561092	-1.283024
C	-0.000000	-1.440664	-0.000000
S	0.268206	-2.286957	1.521018
C	-0.437628	-1.978743	-2.483610
H	-0.549717	-2.878678	-3.118875
H	0.394664	-1.376015	-2.903464
H	-1.363110	-1.375728	-2.593726
H	0.237880	-4.783437	1.354522
C	0.000000	0.000000	0.000000
C	0.149995	0.850475	1.099446
C	0.390327	2.213354	0.776721
H	0.085947	0.487279	2.136088
C	0.428665	2.430655	-0.612546
S	0.163670	0.928078	-1.486809
C	0.579235	3.284574	1.814609
H	0.505323	2.865404	2.836676
H	-0.185980	4.083890	1.726239
H	1.571698	3.773937	1.726228
H	0.593515	3.365448	-1.161575
$end

$rem
JOBTYPE		SP
EXCHANGE	HF
CORRELATION	pRIMP2
BASIS		cc-pvtz
METHOD		rimp2
AUX_BASIS	rimp2-cc-pvtz
SOLVENT_METHOD	PCM
PURECART	11111
SYMMETRY	false
MEM_TOTAL	110000
SCF_CONVERGENCE = 6
THRESH=10
$end

$solvent
dielectric 4.90
$end
--------------------------------------------------------------

             Standard Nuclear Orientation (Angstroms)
    I     Atom           X                Y                Z
 ----------------------------------------------------------------
    1      C       0.1338970000    -3.8667250000     0.7634750000
    2      C      -0.1066690000    -3.7039630000    -0.6032060000
    3      C      -0.1851540000    -2.3570560000    -1.0504460000
    4      H      -0.2267090000    -4.5610920000    -1.2830240000
    5      C       0.0000000000    -1.4406640000     0.0000000000
    6      S       0.2682060000    -2.2869570000     1.5210180000
    7      C      -0.4376280000    -1.9787430000    -2.4836100000
    8      H      -0.5497170000    -2.8786780000    -3.1188750000
    9      H       0.3946640000    -1.3760150000    -2.9034640000
   10      H      -1.3631100000    -1.3757280000    -2.5937260000
   11      H       0.2378800000    -4.7834370000     1.3545220000
   12      C       0.0000000000     0.0000000000     0.0000000000
   13      C       0.1499950000     0.8504750000     1.0994460000
   14      C       0.3903270000     2.2133540000     0.7767210000
   15      H       0.0859470000     0.4872790000     2.1360880000
   16      C       0.4286650000     2.4306550000    -0.6125460000
   17      S       0.1636700000     0.9280780000    -1.4868090000
   18      C       0.5792350000     3.2845740000     1.8146090000
   19      H       0.5053230000     2.8654040000     2.8366760000
   20      H      -0.1859800000     4.0838900000     1.7262390000
   21      H       1.5716980000     3.7739370000     1.7262280000
   22      H       0.5935150000     3.3654480000    -1.1615750000
 ----------------------------------------------------------------

   10   -1179.6849214400      5.40e-07  Convergence criterion met
 Total energy in the final basis set =    -1179.6849214400
        RIMP2         total energy =     -1181.6656918516 a.u.

                    Orbital Energies (a.u.)
 --------------------------------------------------------------

 Alpha MOs
 -- Occupied --
-91.9852 -91.9848 -11.2839 -11.2782 -11.2729 -11.2622 -11.2540 -11.2523
-11.2436 -11.2400 -11.2305 -11.2289  -8.9850  -8.9847  -6.6658  -6.6657
 -6.6653  -6.6651  -6.6646  -6.6645  -1.1816  -1.1501  -1.0423  -1.0260
 -0.9990  -0.9524  -0.9154  -0.8951  -0.8005  -0.7655  -0.7197  -0.6958
 -0.6636  -0.6158  -0.5845  -0.5822  -0.5774  -0.5697  -0.5532  -0.5344
 -0.5234  -0.5210  -0.5114  -0.4964  -0.4903  -0.4677  -0.4509  -0.3703
 -0.3435  -0.3407  -0.2686

          Ground-State Mulliken Net Atomic Charges

     Atom                 Charge (a.u.)
  ----------------------------------------
      1 C                    -0.211606
      2 C                    -0.254549
      3 C                     0.049769
      4 H                     0.184941
      5 C                    -0.020838
      6 S                     0.006464
      7 C                    -0.321643
      8 H                     0.117861
      9 H                     0.113181
     10 H                     0.119381
     11 H                     0.207480
     12 C                     0.066416
     13 C                    -0.291239
     14 C                     0.044894
     15 H                     0.176901
     16 C                    -0.261631
     17 S                     0.026070
     18 C                    -0.270658
     19 H                     0.102779
     20 H                     0.108283
     21 H                     0.109082
     22 H                     0.198661
  ----------------------------------------
  Sum of atomic charges =     0.000000

                    Cartesian Multipole Moments
 -----------------------------------------------------------------
    Charge (ESU x 10^10)
                -0.0000
    Dipole Moment (Debye)
         X       0.0477      Y       0.0455      Z      -0.1492
       Tot       0.1631
    Quadrupole Moments (Debye-Ang)
        XX     -92.2414     XY       2.2554     YY     -68.8371
        XZ       1.3614     YZ       3.3239     ZZ     -80.0182

 Total job time:  600.67s(wall), 596.98s(cpu)
        *  Thank you very much for using Q-Chem.  Have a nice day.  *
