 Q-Chem 5.4, Q-Chem, Inc., Pleasanton, CA (2021)
 Q-Chem 5.4.0 for Intel X86 EM64T Linux

User input:
--------------------------------------------------------------
$molecule
0 1
C	0.670748	-3.808105	0.775127
C	0.642889	-3.647744	-0.612565
C	0.409365	-2.321236	-1.066639
H	0.791563	-4.491881	-1.302900
C	0.250169	-1.418777	0.000000
S	0.397135	-2.252211	1.544483
C	0.343896	-1.948630	-2.521872
H	0.500095	-2.834906	-3.166949
H	1.118228	-1.200068	-2.790821
H	-0.639561	-1.509723	-2.791023
H	0.829705	-4.710930	1.375251
C	0.000000	0.000000	0.000000
C	0.661577	0.555087	1.099446
C	1.721724	1.444630	0.776721
H	0.379056	0.318032	2.136088
C	1.890772	1.586449	-0.612546
S	0.721935	0.605744	-1.486809
C	2.555004	2.143805	1.814609
H	2.228946	1.870211	2.836676
H	2.482605	3.247987	1.726239
H	3.629830	1.880735	1.726228
H	2.617927	2.196579	-1.161575
$end

$rem
JOBTYPE		SP
EXCHANGE	HF
CORRELATION	pRIMP2
BASIS		cc-pvtz
METHOD		rimp2
AUX_BASIS	rimp2-cc-pvtz
SOLVENT_METHOD	PCM
PURECART	11111
SYMMETRY	false
MEM_TOTAL	110000
SCF_CONVERGENCE = 6
THRESH=10
$end

$solvent
dielectric 4.90
$end
--------------------------------------------------------------

             Standard Nuclear Orientation (Angstroms)
    I     Atom           X                Y                Z
 ----------------------------------------------------------------
    1      C       0.6707480000    -3.8081050000     0.7751270000
    2      C       0.6428890000    -3.6477440000    -0.6125650000
    3      C       0.4093650000    -2.3212360000    -1.0666390000
    4      H       0.7915630000    -4.4918810000    -1.3029000000
    5      C       0.2501690000    -1.4187770000     0.0000000000
    6      S       0.3971350000    -2.2522110000     1.5444830000
    7      C       0.3438960000    -1.9486300000    -2.5218720000
    8      H       0.5000950000    -2.8349060000    -3.1669490000
    9      H       1.1182280000    -1.2000680000    -2.7908210000
   10      H      -0.6395610000    -1.5097230000    -2.7910230000
   11      H       0.8297050000    -4.7109300000     1.3752510000
   12      C       0.0000000000     0.0000000000     0.0000000000
   13      C       0.6615770000     0.5550870000     1.0994460000
   14      C       1.7217240000     1.4446300000     0.7767210000
   15      H       0.3790560000     0.3180320000     2.1360880000
   16      C       1.8907720000     1.5864490000    -0.6125460000
   17      S       0.7219350000     0.6057440000    -1.4868090000
   18      C       2.5550040000     2.1438050000     1.8146090000
   19      H       2.2289460000     1.8702110000     2.8366760000
   20      H       2.4826050000     3.2479870000     1.7262390000
   21      H       3.6298300000     1.8807350000     1.7262280000
   22      H       2.6179270000     2.1965790000    -1.1615750000
 ----------------------------------------------------------------

   11   -1179.5986283368      7.16e-07  Convergence criterion met
 Total energy in the final basis set =    -1179.5986283368
        RIMP2         total energy =     -1181.5988655857 a.u.

                    Orbital Energies (a.u.)
 --------------------------------------------------------------

 Alpha MOs
 -- Occupied --
-91.9830 -91.9734 -11.2912 -11.2809 -11.2664 -11.2581 -11.2555 -11.2551
-11.2374 -11.2323 -11.2316 -11.2207  -8.9844  -8.9741  -6.6650  -6.6642
 -6.6638  -6.6551  -6.6545  -6.6538  -1.1950  -1.1447  -1.0486  -1.0249
 -0.9997  -0.9481  -0.9122  -0.8952  -0.7955  -0.7691  -0.7250  -0.6920
 -0.6549  -0.6213  -0.5928  -0.5858  -0.5761  -0.5699  -0.5509  -0.5348
 -0.5275  -0.5180  -0.5116  -0.4944  -0.4688  -0.4574  -0.4403  -0.3696
 -0.3429  -0.3331  -0.2601

          Ground-State Mulliken Net Atomic Charges

     Atom                 Charge (a.u.)
  ----------------------------------------
      1 C                    -0.248909
      2 C                    -0.244277
      3 C                     0.011945
      4 H                     0.181850
      5 C                    -0.002561
      6 S                    -0.028430
      7 C                    -0.302050
      8 H                     0.105317
      9 H                     0.115282
     10 H                     0.109355
     11 H                     0.200071
     12 C                    -0.101929
     13 C                    -0.110992
     14 C                    -0.012976
     15 H                     0.189559
     16 C                    -0.180480
     17 S                     0.061581
     18 C                    -0.264250
     19 H                     0.103852
     20 H                     0.108055
     21 H                     0.106577
     22 H                     0.203409
  ----------------------------------------
  Sum of atomic charges =     0.000000

                    Cartesian Multipole Moments
 -----------------------------------------------------------------
    Charge (ESU x 10^10)
                -0.0000
    Dipole Moment (Debye)
         X       2.7663      Y       1.8874      Z      -0.1206
       Tot       3.3510
    Quadrupole Moments (Debye-Ang)
        XX     -84.5619     XY       5.1113     YY     -80.1780
        XZ      -0.4522     YZ       3.0094     ZZ     -79.7274

 Total job time:  650.28s(wall), 644.92s(cpu)
        *  Thank you very much for using Q-Chem.  Have a nice day.  *
