 Q-Chem 5.4, Q-Chem, Inc., Pleasanton, CA (2021)
 Q-Chem 5.4.0 for Intel X86 EM64T Linux

User input:
--------------------------------------------------------------
$molecule
0 1
C	-0.498788	-3.866725	0.593324
C	0.393517	-3.703963	-0.469446
C	0.685674	-2.357056	-0.817050
H	0.837128	-4.561092	-0.998381
C	-0.000000	-1.440664	-0.000000
S	-0.992768	-2.286957	1.183149
C	1.621254	-1.978743	-1.931676
H	2.035845	-2.878678	-2.425882
H	2.477868	-1.376015	-1.563980
H	1.110719	-1.375728	-2.711417
H	-0.884718	-4.783437	1.052896
C	0.000000	0.000000	0.000000
C	0.075300	0.860311	1.099446
C	0.195935	2.238951	0.776721
H	0.043151	0.492916	2.136088
C	0.215188	2.458766	-0.612546
S	0.082160	0.938811	-1.486809
C	0.290762	3.322559	1.814609
H	0.253664	2.898542	2.836676
H	-0.541206	4.052140	1.726239
H	1.236797	3.896558	1.726228
H	0.297938	3.404370	-1.161575
$end

$rem
JOBTYPE		SP
EXCHANGE	HF
CORRELATION	pRIMP2
BASIS		cc-pvtz
METHOD		rimp2
AUX_BASIS	rimp2-cc-pvtz
SOLVENT_METHOD	PCM
PURECART	11111
SYMMETRY	false
MEM_TOTAL	110000
SCF_CONVERGENCE = 6
THRESH=10
$end

$solvent
dielectric 4.90
$end
--------------------------------------------------------------

             Standard Nuclear Orientation (Angstroms)
    I     Atom           X                Y                Z
 ----------------------------------------------------------------
    1      C      -0.4987880000    -3.8667250000     0.5933240000
    2      C       0.3935170000    -3.7039630000    -0.4694460000
    3      C       0.6856740000    -2.3570560000    -0.8170500000
    4      H       0.8371280000    -4.5610920000    -0.9983810000
    5      C       0.0000000000    -1.4406640000     0.0000000000
    6      S      -0.9927680000    -2.2869570000     1.1831490000
    7      C       1.6212540000    -1.9787430000    -1.9316760000
    8      H       2.0358450000    -2.8786780000    -2.4258820000
    9      H       2.4778680000    -1.3760150000    -1.5639800000
   10      H       1.1107190000    -1.3757280000    -2.7114170000
   11      H      -0.8847180000    -4.7834370000     1.0528960000
   12      C       0.0000000000     0.0000000000     0.0000000000
   13      C       0.0753000000     0.8603110000     1.0994460000
   14      C       0.1959350000     2.2389510000     0.7767210000
   15      H       0.0431510000     0.4929160000     2.1360880000
   16      C       0.2151880000     2.4587660000    -0.6125460000
   17      S       0.0821600000     0.9388110000    -1.4868090000
   18      C       0.2907620000     3.3225590000     1.8146090000
   19      H       0.2536640000     2.8985420000     2.8366760000
   20      H      -0.5412060000     4.0521400000     1.7262390000
   21      H       1.2367970000     3.8965580000     1.7262280000
   22      H       0.2979380000     3.4043700000    -1.1615750000
 ----------------------------------------------------------------

   10   -1179.6858161445      5.16e-07  Convergence criterion met
 Total energy in the final basis set =    -1179.6858161445
        RIMP2         total energy =     -1181.6652731947 a.u.

                    Orbital Energies (a.u.)
 --------------------------------------------------------------

 Alpha MOs
 -- Occupied --
-91.9853 -91.9851 -11.2821 -11.2764 -11.2721 -11.2638 -11.2532 -11.2515
-11.2429 -11.2413 -11.2290 -11.2289  -8.9849  -8.9848  -6.6658  -6.6657
 -6.6653  -6.6651  -6.6647  -6.6645  -1.1801  -1.1499  -1.0413  -1.0239
 -0.9986  -0.9530  -0.9144  -0.8936  -0.8004  -0.7619  -0.7231  -0.6952
 -0.6627  -0.6161  -0.5834  -0.5777  -0.5769  -0.5697  -0.5523  -0.5335
 -0.5263  -0.5197  -0.5099  -0.4951  -0.4880  -0.4673  -0.4558  -0.3586
 -0.3425  -0.3389  -0.2771

          Ground-State Mulliken Net Atomic Charges

     Atom                 Charge (a.u.)
  ----------------------------------------
      1 C                    -0.215860
      2 C                    -0.248442
      3 C                     0.030775
      4 H                     0.184709
      5 C                    -0.024682
      6 S                     0.020151
      7 C                    -0.300645
      8 H                     0.110861
      9 H                     0.117755
     10 H                     0.112539
     11 H                     0.205208
     12 C                     0.023799
     13 C                    -0.248017
     14 C                     0.020543
     15 H                     0.185723
     16 C                    -0.241500
     17 S                     0.020609
     18 C                    -0.271360
     19 H                     0.102942
     20 H                     0.108369
     21 H                     0.108140
     22 H                     0.198383
  ----------------------------------------
  Sum of atomic charges =     0.000000

                    Cartesian Multipole Moments
 -----------------------------------------------------------------
    Charge (ESU x 10^10)
                -0.0000
    Dipole Moment (Debye)
         X       1.1508      Y       0.2055      Z       0.2296
       Tot       1.1913
    Quadrupole Moments (Debye-Ang)
        XX     -89.9461     XY      -0.4190     YY     -68.8850
        XZ      -3.2301     YZ       2.6649     ZZ     -82.7167

 Total job time:  580.82s(wall), 572.60s(cpu)
        *  Thank you very much for using Q-Chem.  Have a nice day.  *
