 Q-Chem 5.4, Q-Chem, Inc., Pleasanton, CA (2021)
 Q-Chem 5.4.0 for Intel X86 EM64T Linux

User input:
--------------------------------------------------------------
$molecule
0 1
C	-0.135301	-3.866725	0.763228
C	0.106073	-3.703963	-0.603311
C	0.185286	-2.357056	-1.050423
H	0.225783	-4.561092	-1.283188
C	-0.000000	-1.440664	-0.000000
S	-0.268187	-2.286957	1.521021
C	0.438209	-1.978743	-2.483507
H	0.550153	-2.878678	-3.118798
H	1.363906	-1.376015	-2.593381
H	-0.393798	-1.375728	-2.903516
H	-0.239740	-4.783437	1.354194
C	0.000000	0.000000	0.000000
C	0.555137	0.661535	1.099446
C	1.444710	1.721658	0.776721
H	0.318072	0.379023	2.136088
C	1.586563	1.890676	-0.612546
S	0.605781	0.721904	-1.486809
C	2.143920	2.554907	1.814609
H	1.870325	2.228851	2.836676
H	1.880882	3.629742	1.726239
H	3.248098	2.482476	1.726228
H	2.196723	2.617806	-1.161575
$end

$rem
JOBTYPE		SP
EXCHANGE	HF
CORRELATION	pRIMP2
BASIS		cc-pvtz
METHOD		rimp2
AUX_BASIS	rimp2-cc-pvtz
SOLVENT_METHOD	PCM
PURECART	11111
SYMMETRY	false
MEM_TOTAL	110000
SCF_CONVERGENCE = 6
THRESH=10
$end

$solvent
dielectric 4.90
$end
--------------------------------------------------------------

             Standard Nuclear Orientation (Angstroms)
    I     Atom           X                Y                Z
 ----------------------------------------------------------------
    1      C      -0.1353010000    -3.8667250000     0.7632280000
    2      C       0.1060730000    -3.7039630000    -0.6033110000
    3      C       0.1852860000    -2.3570560000    -1.0504230000
    4      H       0.2257830000    -4.5610920000    -1.2831880000
    5      C       0.0000000000    -1.4406640000     0.0000000000
    6      S      -0.2681870000    -2.2869570000     1.5210210000
    7      C       0.4382090000    -1.9787430000    -2.4835070000
    8      H       0.5501530000    -2.8786780000    -3.1187980000
    9      H       1.3639060000    -1.3760150000    -2.5933810000
   10      H      -0.3937980000    -1.3757280000    -2.9035160000
   11      H      -0.2397400000    -4.7834370000     1.3541940000
   12      C       0.0000000000     0.0000000000     0.0000000000
   13      C       0.5551370000     0.6615350000     1.0994460000
   14      C       1.4447100000     1.7216580000     0.7767210000
   15      H       0.3180720000     0.3790230000     2.1360880000
   16      C       1.5865630000     1.8906760000    -0.6125460000
   17      S       0.6057810000     0.7219040000    -1.4868090000
   18      C       2.1439200000     2.5549070000     1.8146090000
   19      H       1.8703250000     2.2288510000     2.8366760000
   20      H       1.8808820000     3.6297420000     1.7262390000
   21      H       3.2480980000     2.4824760000     1.7262280000
   22      H       2.1967230000     2.6178060000    -1.1615750000
 ----------------------------------------------------------------

   10   -1179.6468503518      7.99e-07  Convergence criterion met
 Total energy in the final basis set =    -1179.6468503518
        RIMP2         total energy =     -1181.6376727234 a.u.

                    Orbital Energies (a.u.)
 --------------------------------------------------------------

 Alpha MOs
 -- Occupied --
-91.9831 -91.9787 -11.2793 -11.2735 -11.2734 -11.2646 -11.2531 -11.2502
-11.2441 -11.2404 -11.2299 -11.2252  -8.9837  -8.9790  -6.6644  -6.6637
 -6.6632  -6.6600  -6.6594  -6.6588  -1.1853  -1.1478  -1.0445  -1.0235
 -0.9987  -0.9511  -0.9123  -0.8955  -0.7966  -0.7655  -0.7220  -0.6949
 -0.6587  -0.6169  -0.5861  -0.5827  -0.5776  -0.5695  -0.5515  -0.5337
 -0.5227  -0.5226  -0.5122  -0.4951  -0.4781  -0.4629  -0.4459  -0.3709
 -0.3405  -0.3379  -0.2641

          Ground-State Mulliken Net Atomic Charges

     Atom                 Charge (a.u.)
  ----------------------------------------
      1 C                    -0.224895
      2 C                    -0.250270
      3 C                     0.041000
      4 H                     0.183684
      5 C                    -0.026713
      6 S                    -0.010208
      7 C                    -0.306059
      8 H                     0.109952
      9 H                     0.118081
     10 H                     0.110181
     11 H                     0.203865
     12 C                    -0.008551
     13 C                    -0.200549
     14 C                     0.018297
     15 H                     0.181136
     16 C                    -0.227874
     17 S                     0.037421
     18 C                    -0.267359
     19 H                     0.103044
     20 H                     0.108378
     21 H                     0.107197
     22 H                     0.200242
  ----------------------------------------
  Sum of atomic charges =     0.000000

                    Cartesian Multipole Moments
 -----------------------------------------------------------------
    Charge (ESU x 10^10)
                -0.0000
    Dipole Moment (Debye)
         X       1.9318      Y       0.7940      Z      -0.1698
       Tot       2.0955
    Quadrupole Moments (Debye-Ang)
        XX     -87.5451     XY       5.2160     YY     -75.5484
        XZ      -0.7504     YZ       3.0146     ZZ     -80.0803

 Total job time:  583.57s(wall), 580.37s(cpu)
        *  Thank you very much for using Q-Chem.  Have a nice day.  *
