 Q-Chem 5.4, Q-Chem, Inc., Pleasanton, CA (2021)
 Q-Chem 5.4.0 for Intel X86 EM64T Linux

User input:
--------------------------------------------------------------
$molecule
0 1
C	0.386946	-3.866725	0.671636
C	-0.306544	-3.703963	-0.530345
C	-0.533261	-2.357056	-0.923770
H	-0.651857	-4.561092	-1.128109
C	0.000000	-1.440664	0.000000
S	0.772250	-2.286957	1.337557
C	-1.260680	-1.978743	-2.184153
H	-1.583283	-2.878678	-2.742769
H	-0.622180	-1.376015	-2.863347
H	-2.168011	-1.375728	-1.971094
H	0.686807	-4.783437	1.191474
C	0.000000	0.000000	0.000000
C	0.295399	0.811508	1.099446
C	0.768742	2.111949	0.776721
H	0.169256	0.464952	2.136088
C	0.844232	2.319291	-0.612546
S	0.322342	0.885558	-1.486809
C	1.140796	3.134091	1.814609
H	0.995218	2.734123	2.836676
H	0.526006	4.054142	1.726239
H	2.203157	3.443680	1.726228
H	1.168902	3.211257	-1.161575
$end

$rem
JOBTYPE		SP
EXCHANGE	HF
CORRELATION	pRIMP2
BASIS		cc-pvtz
METHOD		rimp2
AUX_BASIS	rimp2-cc-pvtz
SOLVENT_METHOD	PCM
PURECART	11111
SYMMETRY	false
MEM_TOTAL	110000
SCF_CONVERGENCE = 6
THRESH=10
$end

$solvent
dielectric 4.90
$end
--------------------------------------------------------------

             Standard Nuclear Orientation (Angstroms)
    I     Atom           X                Y                Z
 ----------------------------------------------------------------
    1      C       0.3869460000    -3.8667250000     0.6716360000
    2      C      -0.3065440000    -3.7039630000    -0.5303450000
    3      C      -0.5332610000    -2.3570560000    -0.9237700000
    4      H      -0.6518570000    -4.5610920000    -1.1281090000
    5      C       0.0000000000    -1.4406640000     0.0000000000
    6      S       0.7722500000    -2.2869570000     1.3375570000
    7      C      -1.2606800000    -1.9787430000    -2.1841530000
    8      H      -1.5832830000    -2.8786780000    -2.7427690000
    9      H      -0.6221800000    -1.3760150000    -2.8633470000
   10      H      -2.1680110000    -1.3757280000    -1.9710940000
   11      H       0.6868070000    -4.7834370000     1.1914740000
   12      C       0.0000000000     0.0000000000     0.0000000000
   13      C       0.2953990000     0.8115080000     1.0994460000
   14      C       0.7687420000     2.1119490000     0.7767210000
   15      H       0.1692560000     0.4649520000     2.1360880000
   16      C       0.8442320000     2.3192910000    -0.6125460000
   17      S       0.3223420000     0.8855580000    -1.4868090000
   18      C       1.1407960000     3.1340910000     1.8146090000
   19      H       0.9952180000     2.7341230000     2.8366760000
   20      H       0.5260060000     4.0541420000     1.7262390000
   21      H       2.2031570000     3.4436800000     1.7262280000
   22      H       1.1689020000     3.2112570000    -1.1615750000
 ----------------------------------------------------------------

   10   -1179.6803073759      5.27e-07  Convergence criterion met
 Total energy in the final basis set =    -1179.6803073759
        RIMP2         total energy =     -1181.6615230698 a.u.

                    Orbital Energies (a.u.)
 --------------------------------------------------------------

 Alpha MOs
 -- Occupied --
-91.9852 -91.9847 -11.2806 -11.2762 -11.2709 -11.2661 -11.2525 -11.2514
-11.2427 -11.2425 -11.2300 -11.2292  -8.9850  -8.9844  -6.6659  -6.6653
 -6.6653  -6.6648  -6.6647  -6.6641  -1.1814  -1.1498  -1.0420  -1.0245
 -0.9993  -0.9520  -0.9151  -0.8938  -0.8002  -0.7635  -0.7222  -0.6942
 -0.6626  -0.6164  -0.5839  -0.5786  -0.5783  -0.5699  -0.5524  -0.5344
 -0.5252  -0.5197  -0.5097  -0.4960  -0.4871  -0.4680  -0.4544  -0.3615
 -0.3429  -0.3413  -0.2727

          Ground-State Mulliken Net Atomic Charges

     Atom                 Charge (a.u.)
  ----------------------------------------
      1 C                    -0.216188
      2 C                    -0.248009
      3 C                     0.034263
      4 H                     0.184100
      5 C                    -0.015097
      6 S                     0.015248
      7 C                    -0.308027
      8 H                     0.112499
      9 H                     0.112375
     10 H                     0.117027
     11 H                     0.205468
     12 C                     0.048747
     13 C                    -0.310824
     14 C                     0.055514
     15 H                     0.183957
     16 C                    -0.254141
     17 S                     0.034451
     18 C                    -0.269769
     19 H                     0.103171
     20 H                     0.108214
     21 H                     0.109208
     22 H                     0.197814
  ----------------------------------------
  Sum of atomic charges =     0.000000

                    Cartesian Multipole Moments
 -----------------------------------------------------------------
    Charge (ESU x 10^10)
                -0.0000
    Dipole Moment (Debye)
         X      -0.0723      Y       0.2728      Z       0.1219
       Tot       0.3074
    Quadrupole Moments (Debye-Ang)
        XX     -89.7699     XY       4.7112     YY     -70.0665
        XZ       3.2731     YZ       2.9163     ZZ     -81.5956

 Total job time:  550.03s(wall), 546.87s(cpu)
        *  Thank you very much for using Q-Chem.  Have a nice day.  *
