 Q-Chem 5.4, Q-Chem, Inc., Pleasanton, CA (2021)
 Q-Chem 5.4.0 for Intel X86 EM64T Linux

User input:
--------------------------------------------------------------
$molecule
0 1
C	0.388181	-3.866725	-0.670924
C	-0.306020	-3.703963	0.530648
C	-0.533378	-2.357056	0.923703
H	-0.651043	-4.561092	1.128579
C	0.000000	-1.440664	0.000000
S	0.772234	-2.286957	-1.337567
C	-1.261192	-1.978743	2.183857
H	-1.583666	-2.878678	2.742548
H	-2.168641	-1.376015	1.970497
H	-0.623012	-1.375728	2.863099
H	0.688443	-4.783437	-1.190530
C	0.000000	0.000000	0.000000
C	0.747916	0.431772	1.099446
C	1.946425	1.123709	0.776721
H	0.428523	0.247378	2.136088
C	2.137531	1.234018	-0.612546
S	0.816154	0.471179	-1.486809
C	2.888455	1.667564	1.814609
H	2.519842	1.454746	2.836676
H	3.008896	2.767543	1.726239
H	3.901271	1.221850	1.726228
H	2.959587	1.708609	-1.161575
$end

$rem
JOBTYPE		SP
EXCHANGE	HF
CORRELATION	pRIMP2
BASIS		cc-pvtz
METHOD		rimp2
AUX_BASIS	rimp2-cc-pvtz
SOLVENT_METHOD	PCM
PURECART	11111
SYMMETRY	false
MEM_TOTAL	110000
SCF_CONVERGENCE = 6
THRESH=10
$end

$solvent
dielectric 4.90
$end
--------------------------------------------------------------

             Standard Nuclear Orientation (Angstroms)
    I     Atom           X                Y                Z
 ----------------------------------------------------------------
    1      C       0.3881810000    -3.8667250000    -0.6709240000
    2      C      -0.3060200000    -3.7039630000     0.5306480000
    3      C      -0.5333780000    -2.3570560000     0.9237030000
    4      H      -0.6510430000    -4.5610920000     1.1285790000
    5      C       0.0000000000    -1.4406640000     0.0000000000
    6      S       0.7722340000    -2.2869570000    -1.3375670000
    7      C      -1.2611920000    -1.9787430000     2.1838570000
    8      H      -1.5836660000    -2.8786780000     2.7425480000
    9      H      -2.1686410000    -1.3760150000     1.9704970000
   10      H      -0.6230120000    -1.3757280000     2.8630990000
   11      H       0.6884430000    -4.7834370000    -1.1905300000
   12      C       0.0000000000     0.0000000000     0.0000000000
   13      C       0.7479160000     0.4317720000     1.0994460000
   14      C       1.9464250000     1.1237090000     0.7767210000
   15      H       0.4285230000     0.2473780000     2.1360880000
   16      C       2.1375310000     1.2340180000    -0.6125460000
   17      S       0.8161540000     0.4711790000    -1.4868090000
   18      C       2.8884550000     1.6675640000     1.8146090000
   19      H       2.5198420000     1.4547460000     2.8366760000
   20      H       3.0088960000     2.7675430000     1.7262390000
   21      H       3.9012710000     1.2218500000     1.7262280000
   22      H       2.9595870000     1.7086090000    -1.1615750000
 ----------------------------------------------------------------

   11   -1179.6081919695      5.16e-07  Convergence criterion met
 Total energy in the final basis set =    -1179.6081919695
        RIMP2         total energy =     -1181.6047177792 a.u.

                    Orbital Energies (a.u.)
 --------------------------------------------------------------

 Alpha MOs
 -- Occupied --
-91.9862 -91.9757 -11.2948 -11.2792 -11.2716 -11.2587 -11.2579 -11.2479
-11.2353 -11.2330 -11.2277 -11.2249  -8.9873  -8.9757  -6.6680  -6.6672
 -6.6669  -6.6565  -6.6557  -6.6551  -1.1964  -1.1437  -1.0498  -1.0212
 -0.9986  -0.9552  -0.9083  -0.8924  -0.8025  -0.7560  -0.7321  -0.6971
 -0.6525  -0.6207  -0.5970  -0.5812  -0.5691  -0.5613  -0.5493  -0.5420
 -0.5355  -0.5169  -0.5065  -0.4902  -0.4841  -0.4552  -0.4448  -0.3699
 -0.3379  -0.3333  -0.2632

          Ground-State Mulliken Net Atomic Charges

     Atom                 Charge (a.u.)
  ----------------------------------------
      1 C                    -0.277266
      2 C                    -0.234603
      3 C                    -0.008265
      4 H                     0.178656
      5 C                     0.018796
      6 S                     0.010255
      7 C                    -0.298679
      8 H                     0.108316
      9 H                     0.107846
     10 H                     0.093427
     11 H                     0.197397
     12 C                    -0.112640
     13 C                    -0.086757
     14 C                    -0.027834
     15 H                     0.203929
     16 C                    -0.162831
     17 S                     0.031584
     18 C                    -0.266446
     19 H                     0.103015
     20 H                     0.108654
     21 H                     0.107497
     22 H                     0.205946
  ----------------------------------------
  Sum of atomic charges =     0.000000

                    Cartesian Multipole Moments
 -----------------------------------------------------------------
    Charge (ESU x 10^10)
                -0.0000
    Dipole Moment (Debye)
         X       2.5104      Y       1.8191      Z       2.6879
       Tot       4.1032
    Quadrupole Moments (Debye-Ang)
        XX     -80.9721     XY       7.1280     YY     -83.1002
        XZ      -1.9417     YZ      -1.5178     ZZ     -81.2513

 Total job time:  635.53s(wall), 631.96s(cpu)
        *  Thank you very much for using Q-Chem.  Have a nice day.  *
