 Q-Chem 5.4, Q-Chem, Inc., Pleasanton, CA (2021)
 Q-Chem 5.4.0 for Intel X86 EM64T Linux

User input:
--------------------------------------------------------------
$molecule
0 1
C	0.594240	-3.866725	-0.497696
C	-0.469057	-3.703963	0.393981
C	-0.817136	-2.357056	0.685571
H	-0.997777	-4.561092	0.837848
C	0.000000	-1.440664	0.000000
S	1.183137	-2.286957	-0.992782
C	-1.932056	-1.978743	1.620802
H	-2.426166	-2.878678	2.035506
H	-2.711806	-1.376015	1.109943
H	-1.564678	-1.375728	2.477350
H	1.054110	-4.783437	-0.883271
C	0.000000	0.000000	0.000000
C	0.661577	0.555087	1.099446
C	1.721724	1.444630	0.776721
H	0.379056	0.318032	2.136088
C	1.890772	1.586449	-0.612546
S	0.721935	0.605744	-1.486809
C	2.555004	2.143805	1.814609
H	2.228946	1.870211	2.836676
H	2.482605	3.247987	1.726239
H	3.629830	1.880735	1.726228
H	2.617927	2.196579	-1.161575
$end

$rem
JOBTYPE		SP
EXCHANGE	HF
CORRELATION	pRIMP2
BASIS		cc-pvtz
METHOD		rimp2
AUX_BASIS	rimp2-cc-pvtz
SOLVENT_METHOD	PCM
PURECART	11111
SYMMETRY	false
MEM_TOTAL	110000
SCF_CONVERGENCE = 6
THRESH=10
$end

$solvent
dielectric 4.90
$end
--------------------------------------------------------------

             Standard Nuclear Orientation (Angstroms)
    I     Atom           X                Y                Z
 ----------------------------------------------------------------
    1      C       0.5942400000    -3.8667250000    -0.4976960000
    2      C      -0.4690570000    -3.7039630000     0.3939810000
    3      C      -0.8171360000    -2.3570560000     0.6855710000
    4      H      -0.9977770000    -4.5610920000     0.8378480000
    5      C       0.0000000000    -1.4406640000     0.0000000000
    6      S       1.1831370000    -2.2869570000    -0.9927820000
    7      C      -1.9320560000    -1.9787430000     1.6208020000
    8      H      -2.4261660000    -2.8786780000     2.0355060000
    9      H      -2.7118060000    -1.3760150000     1.1099430000
   10      H      -1.5646780000    -1.3757280000     2.4773500000
   11      H       1.0541100000    -4.7834370000    -0.8832710000
   12      C       0.0000000000     0.0000000000     0.0000000000
   13      C       0.6615770000     0.5550870000     1.0994460000
   14      C       1.7217240000     1.4446300000     0.7767210000
   15      H       0.3790560000     0.3180320000     2.1360880000
   16      C       1.8907720000     1.5864490000    -0.6125460000
   17      S       0.7219350000     0.6057440000    -1.4868090000
   18      C       2.5550040000     2.1438050000     1.8146090000
   19      H       2.2289460000     1.8702110000     2.8366760000
   20      H       2.4826050000     3.2479870000     1.7262390000
   21      H       3.6298300000     1.8807350000     1.7262280000
   22      H       2.6179270000     2.1965790000    -1.1615750000
 ----------------------------------------------------------------

   10   -1179.6354535288      8.19e-07  Convergence criterion met
 Total energy in the final basis set =    -1179.6354535288
        RIMP2         total energy =     -1181.6261972771 a.u.

                    Orbital Energies (a.u.)
 --------------------------------------------------------------

 Alpha MOs
 -- Occupied --
-91.9856 -91.9780 -11.2841 -11.2752 -11.2640 -11.2606 -11.2576 -11.2548
-11.2371 -11.2359 -11.2313 -11.2257  -8.9860  -8.9779  -6.6668  -6.6661
 -6.6657  -6.6588  -6.6581  -6.6575  -1.1884  -1.1458  -1.0458  -1.0191
 -0.9981  -0.9546  -0.9092  -0.8919  -0.8005  -0.7504  -0.7356  -0.6944
 -0.6557  -0.6188  -0.5887  -0.5796  -0.5687  -0.5655  -0.5498  -0.5365
 -0.5329  -0.5171  -0.5077  -0.4889  -0.4789  -0.4615  -0.4544  -0.3623
 -0.3398  -0.3279  -0.2743

          Ground-State Mulliken Net Atomic Charges

     Atom                 Charge (a.u.)
  ----------------------------------------
      1 C                    -0.250101
      2 C                    -0.241721
      3 C                     0.006712
      4 H                     0.180320
      5 C                    -0.004496
      6 S                     0.020482
      7 C                    -0.289933
      8 H                     0.106530
      9 H                     0.107266
     10 H                     0.102717
     11 H                     0.200338
     12 C                    -0.084662
     13 C                    -0.127904
     14 C                    -0.008686
     15 H                     0.195402
     16 C                    -0.185817
     17 S                     0.020741
     18 C                    -0.267574
     19 H                     0.102710
     20 H                     0.108143
     21 H                     0.107253
     22 H                     0.202278
  ----------------------------------------
  Sum of atomic charges =     0.000000

                    Cartesian Multipole Moments
 -----------------------------------------------------------------
    Charge (ESU x 10^10)
                -0.0000
    Dipole Moment (Debye)
         X       1.2867      Y       1.3062      Z       2.4152
       Tot       3.0323
    Quadrupole Moments (Debye-Ang)
        XX     -81.8918     XY       7.8782     YY     -78.7690
        XZ      -2.3319     YZ      -0.8933     ZZ     -83.3810

 Total job time:  564.62s(wall), 561.59s(cpu)
        *  Thank you very much for using Q-Chem.  Have a nice day.  *
