 Q-Chem 5.4, Q-Chem, Inc., Pleasanton, CA (2021)
 Q-Chem 5.4.0 for Intel X86 EM64T Linux

User input:
--------------------------------------------------------------
$molecule
0 1
C	0.388181	-3.866725	-0.670924
C	-0.306020	-3.703963	0.530648
C	-0.533378	-2.357056	0.923703
H	-0.651043	-4.561092	1.128579
C	-0.000000	-1.440664	-0.000000
S	0.772234	-2.286957	-1.337567
C	-1.261192	-1.978743	2.183857
H	-1.583666	-2.878678	2.742548
H	-2.168641	-1.376015	1.970497
H	-0.623012	-1.375728	2.863099
H	0.688443	-4.783437	-1.190530
C	0.000000	0.000000	0.000000
C	0.149995	0.850475	1.099446
C	0.390327	2.213354	0.776721
H	0.085947	0.487279	2.136088
C	0.428665	2.430655	-0.612546
S	0.163670	0.928078	-1.486809
C	0.579235	3.284574	1.814609
H	0.505323	2.865404	2.836676
H	-0.185980	4.083890	1.726239
H	1.571698	3.773937	1.726228
H	0.593515	3.365448	-1.161575
$end

$rem
JOBTYPE		SP
EXCHANGE	HF
CORRELATION	pRIMP2
BASIS		cc-pvtz
METHOD		rimp2
AUX_BASIS	rimp2-cc-pvtz
SOLVENT_METHOD	PCM
PURECART	11111
SYMMETRY	false
MEM_TOTAL	110000
SCF_CONVERGENCE = 6
THRESH=10
$end

$solvent
dielectric 4.90
$end
--------------------------------------------------------------

             Standard Nuclear Orientation (Angstroms)
    I     Atom           X                Y                Z
 ----------------------------------------------------------------
    1      C       0.3881810000    -3.8667250000    -0.6709240000
    2      C      -0.3060200000    -3.7039630000     0.5306480000
    3      C      -0.5333780000    -2.3570560000     0.9237030000
    4      H      -0.6510430000    -4.5610920000     1.1285790000
    5      C       0.0000000000    -1.4406640000     0.0000000000
    6      S       0.7722340000    -2.2869570000    -1.3375670000
    7      C      -1.2611920000    -1.9787430000     2.1838570000
    8      H      -1.5836660000    -2.8786780000     2.7425480000
    9      H      -2.1686410000    -1.3760150000     1.9704970000
   10      H      -0.6230120000    -1.3757280000     2.8630990000
   11      H       0.6884430000    -4.7834370000    -1.1905300000
   12      C       0.0000000000     0.0000000000     0.0000000000
   13      C       0.1499950000     0.8504750000     1.0994460000
   14      C       0.3903270000     2.2133540000     0.7767210000
   15      H       0.0859470000     0.4872790000     2.1360880000
   16      C       0.4286650000     2.4306550000    -0.6125460000
   17      S       0.1636700000     0.9280780000    -1.4868090000
   18      C       0.5792350000     3.2845740000     1.8146090000
   19      H       0.5053230000     2.8654040000     2.8366760000
   20      H      -0.1859800000     4.0838900000     1.7262390000
   21      H       1.5716980000     3.7739370000     1.7262280000
   22      H       0.5935150000     3.3654480000    -1.1615750000
 ----------------------------------------------------------------

   10   -1179.6844508057      5.08e-07  Convergence criterion met
 Total energy in the final basis set =    -1179.6844508057
        RIMP2         total energy =     -1181.6642779877 a.u.

                    Orbital Energies (a.u.)
 --------------------------------------------------------------

 Alpha MOs
 -- Occupied --
-91.9864 -91.9854 -11.2827 -11.2776 -11.2715 -11.2646 -11.2527 -11.2525
-11.2434 -11.2414 -11.2307 -11.2295  -8.9861  -8.9852  -6.6670  -6.6665
 -6.6661  -6.6658  -6.6655  -6.6649  -1.1812  -1.1502  -1.0419  -1.0262
 -0.9962  -0.9565  -0.9135  -0.8942  -0.8032  -0.7555  -0.7287  -0.6990
 -0.6622  -0.6147  -0.5886  -0.5814  -0.5702  -0.5642  -0.5523  -0.5383
 -0.5302  -0.5223  -0.5060  -0.4908  -0.4878  -0.4755  -0.4540  -0.3644
 -0.3445  -0.3389  -0.2730

          Ground-State Mulliken Net Atomic Charges

     Atom                 Charge (a.u.)
  ----------------------------------------
      1 C                    -0.216921
      2 C                    -0.249458
      3 C                     0.051473
      4 H                     0.184172
      5 C                    -0.038927
      6 S                     0.013446
      7 C                    -0.302999
      8 H                     0.113491
      9 H                     0.116243
     10 H                     0.106627
     11 H                     0.206031
     12 C                     0.017180
     13 C                    -0.225508
     14 C                     0.015693
     15 H                     0.192851
     16 C                    -0.239304
     17 S                     0.009509
     18 C                    -0.272334
     19 H                     0.101724
     20 H                     0.108571
     21 H                     0.108992
     22 H                     0.199452
  ----------------------------------------
  Sum of atomic charges =     0.000000

                    Cartesian Multipole Moments
 -----------------------------------------------------------------
    Charge (ESU x 10^10)
                -0.0000
    Dipole Moment (Debye)
         X      -0.4055      Y       0.2520      Z       2.7205
       Tot       2.7621
    Quadrupole Moments (Debye-Ang)
        XX     -90.7666     XY       2.9452     YY     -68.8864
        XZ      -2.6787     YZ      -0.8564     ZZ     -81.7520

 Total job time:  589.16s(wall), 584.96s(cpu)
        *  Thank you very much for using Q-Chem.  Have a nice day.  *
