 Q-Chem 5.4, Q-Chem, Inc., Pleasanton, CA (2021)
 Q-Chem 5.4.0 for Intel X86 EM64T Linux

User input:
--------------------------------------------------------------
$molecule
0 1
C	-0.670924	-3.866725	-0.388181
C	0.530648	-3.703963	0.306020
C	0.923703	-2.357056	0.533378
H	1.128579	-4.561092	0.651043
C	0.000000	-1.440664	0.000000
S	-1.337567	-2.286957	-0.772234
C	2.183857	-1.978743	1.261192
H	2.742548	-2.878678	1.583666
H	1.970497	-1.376015	2.168641
H	2.863099	-1.375728	0.623012
H	-1.190530	-4.783437	-0.688443
C	0.000000	0.000000	0.000000
C	0.295399	0.811508	1.099446
C	0.768742	2.111949	0.776721
H	0.169256	0.464952	2.136088
C	0.844232	2.319291	-0.612546
S	0.322342	0.885558	-1.486809
C	1.140796	3.134091	1.814609
H	0.995218	2.734123	2.836676
H	0.526006	4.054142	1.726239
H	2.203157	3.443680	1.726228
H	1.168902	3.211257	-1.161575
$end

$rem
JOBTYPE		SP
EXCHANGE	HF
CORRELATION	pRIMP2
BASIS		cc-pvtz
METHOD		rimp2
AUX_BASIS	rimp2-cc-pvtz
SOLVENT_METHOD	PCM
PURECART	11111
SYMMETRY	false
MEM_TOTAL	110000
SCF_CONVERGENCE = 6
THRESH=10
$end

$solvent
dielectric 4.90
$end
--------------------------------------------------------------

             Standard Nuclear Orientation (Angstroms)
    I     Atom           X                Y                Z
 ----------------------------------------------------------------
    1      C      -0.6709240000    -3.8667250000    -0.3881810000
    2      C       0.5306480000    -3.7039630000     0.3060200000
    3      C       0.9237030000    -2.3570560000     0.5333780000
    4      H       1.1285790000    -4.5610920000     0.6510430000
    5      C       0.0000000000    -1.4406640000     0.0000000000
    6      S      -1.3375670000    -2.2869570000    -0.7722340000
    7      C       2.1838570000    -1.9787430000     1.2611920000
    8      H       2.7425480000    -2.8786780000     1.5836660000
    9      H       1.9704970000    -1.3760150000     2.1686410000
   10      H       2.8630990000    -1.3757280000     0.6230120000
   11      H      -1.1905300000    -4.7834370000    -0.6884430000
   12      C       0.0000000000     0.0000000000     0.0000000000
   13      C       0.2953990000     0.8115080000     1.0994460000
   14      C       0.7687420000     2.1119490000     0.7767210000
   15      H       0.1692560000     0.4649520000     2.1360880000
   16      C       0.8442320000     2.3192910000    -0.6125460000
   17      S       0.3223420000     0.8855580000    -1.4868090000
   18      C       1.1407960000     3.1340910000     1.8146090000
   19      H       0.9952180000     2.7341230000     2.8366760000
   20      H       0.5260060000     4.0541420000     1.7262390000
   21      H       2.2031570000     3.4436800000     1.7262280000
   22      H       1.1689020000     3.2112570000    -1.1615750000
 ----------------------------------------------------------------

   10   -1179.6789418143      5.35e-07  Convergence criterion met
 Total energy in the final basis set =    -1179.6789418143
        RIMP2         total energy =     -1181.6596550986 a.u.

                    Orbital Energies (a.u.)
 --------------------------------------------------------------

 Alpha MOs
 -- Occupied --
-91.9852 -91.9827 -11.2763 -11.2738 -11.2716 -11.2672 -11.2534 -11.2516
-11.2438 -11.2420 -11.2295 -11.2289  -8.9848  -8.9826  -6.6656  -6.6651
 -6.6645  -6.6635  -6.6629  -6.6623  -1.1796  -1.1494  -1.0408  -1.0232
 -0.9966  -0.9548  -0.9130  -0.8925  -0.8003  -0.7529  -0.7318  -0.6969
 -0.6613  -0.6158  -0.5842  -0.5800  -0.5711  -0.5662  -0.5516  -0.5340
 -0.5286  -0.5216  -0.5086  -0.4914  -0.4837  -0.4665  -0.4596  -0.3450
 -0.3407  -0.3370  -0.2886

          Ground-State Mulliken Net Atomic Charges

     Atom                 Charge (a.u.)
  ----------------------------------------
      1 C                    -0.212372
      2 C                    -0.251014
      3 C                     0.064315
      4 H                     0.183987
      5 C                    -0.035158
      6 S                     0.021113
      7 C                    -0.281817
      8 H                     0.111040
      9 H                     0.107966
     10 H                     0.114937
     11 H                     0.204497
     12 C                    -0.032483
     13 C                    -0.260964
     14 C                     0.037401
     15 H                     0.192345
     16 C                    -0.239249
     17 S                     0.027929
     18 C                    -0.270183
     19 H                     0.102462
     20 H                     0.108619
     21 H                     0.107986
     22 H                     0.198642
  ----------------------------------------
  Sum of atomic charges =     0.000000

                    Cartesian Multipole Moments
 -----------------------------------------------------------------
    Charge (ESU x 10^10)
                -0.0000
    Dipole Moment (Debye)
         X       2.0423      Y       0.3298      Z       2.2558
       Tot       3.0608
    Quadrupole Moments (Debye-Ang)
        XX     -86.5829     XY       1.7070     YY     -70.1109
        XZ       3.1437     YZ      -0.1608     ZZ     -85.0649

 Total job time:  557.88s(wall), 554.43s(cpu)
        *  Thank you very much for using Q-Chem.  Have a nice day.  *
