 Q-Chem 5.4, Q-Chem, Inc., Pleasanton, CA (2021)
 Q-Chem 5.4.0 for Intel X86 EM64T Linux

User input:
--------------------------------------------------------------
$molecule
0 1
C	-0.763475	-3.866725	0.133897
C	0.603206	-3.703963	-0.106669
C	1.050446	-2.357056	-0.185154
H	1.283024	-4.561092	-0.226709
C	0.000000	-1.440664	0.000000
S	-1.521018	-2.286957	0.268206
C	2.483610	-1.978743	-0.437628
H	3.118875	-2.878678	-0.549717
H	2.903464	-1.376015	0.394664
H	2.593726	-1.375728	-1.363110
H	-1.354522	-4.783437	0.237880
C	0.000000	0.000000	0.000000
C	0.000033	0.863600	1.099446
C	0.000052	2.247508	0.776721
H	0.000026	0.494801	2.136088
C	0.000074	2.468165	-0.612546
S	0.000024	0.942399	-1.486809
C	0.000075	3.335257	1.814609
H	0.000074	2.909620	2.836676
H	-0.892314	3.989552	1.726239
H	0.892483	3.989525	1.726228
H	0.000094	3.417382	-1.161575
$end

$rem
JOBTYPE		SP
EXCHANGE	HF
CORRELATION	pRIMP2
BASIS		cc-pvtz
METHOD		rimp2
AUX_BASIS	rimp2-cc-pvtz
SOLVENT_METHOD	PCM
PURECART	11111
SYMMETRY	false
MEM_TOTAL	110000
SCF_CONVERGENCE = 6
THRESH=10
$end

$solvent
dielectric 4.90
$end
--------------------------------------------------------------

             Standard Nuclear Orientation (Angstroms)
    I     Atom           X                Y                Z
 ----------------------------------------------------------------
    1      C      -0.7634750000    -3.8667250000     0.1338970000
    2      C       0.6032060000    -3.7039630000    -0.1066690000
    3      C       1.0504460000    -2.3570560000    -0.1851540000
    4      H       1.2830240000    -4.5610920000    -0.2267090000
    5      C       0.0000000000    -1.4406640000     0.0000000000
    6      S      -1.5210180000    -2.2869570000     0.2682060000
    7      C       2.4836100000    -1.9787430000    -0.4376280000
    8      H       3.1188750000    -2.8786780000    -0.5497170000
    9      H       2.9034640000    -1.3760150000     0.3946640000
   10      H       2.5937260000    -1.3757280000    -1.3631100000
   11      H      -1.3545220000    -4.7834370000     0.2378800000
   12      C       0.0000000000     0.0000000000     0.0000000000
   13      C       0.0000330000     0.8636000000     1.0994460000
   14      C       0.0000520000     2.2475080000     0.7767210000
   15      H       0.0000260000     0.4948010000     2.1360880000
   16      C       0.0000740000     2.4681650000    -0.6125460000
   17      S       0.0000240000     0.9423990000    -1.4868090000
   18      C       0.0000750000     3.3352570000     1.8146090000
   19      H       0.0000740000     2.9096200000     2.8366760000
   20      H      -0.8923140000     3.9895520000     1.7262390000
   21      H       0.8924830000     3.9895250000     1.7262280000
   22      H       0.0000940000     3.4173820000    -1.1615750000
 ----------------------------------------------------------------

   10   -1179.6857919431      5.03e-07  Convergence criterion met
 Total energy in the final basis set =    -1179.6857919431
        RIMP2         total energy =     -1181.6635752424 a.u.

                    Orbital Energies (a.u.)
 --------------------------------------------------------------

 Alpha MOs
 -- Occupied --
-91.9853 -91.9846 -11.2789 -11.2728 -11.2724 -11.2647 -11.2541 -11.2508
-11.2424 -11.2419 -11.2293 -11.2289  -8.9848  -8.9842  -6.6657  -6.6651
 -6.6651  -6.6645  -6.6645  -6.6639  -1.1783  -1.1496  -1.0400  -1.0229
 -0.9974  -0.9538  -0.9137  -0.8921  -0.8006  -0.7551  -0.7292  -0.6948
 -0.6624  -0.6163  -0.5823  -0.5789  -0.5717  -0.5693  -0.5520  -0.5318
 -0.5288  -0.5198  -0.5078  -0.4923  -0.4882  -0.4646  -0.4620  -0.3455
 -0.3392  -0.3209  -0.3039

          Ground-State Mulliken Net Atomic Charges

     Atom                 Charge (a.u.)
  ----------------------------------------
      1 C                    -0.213401
      2 C                    -0.248144
      3 C                     0.042649
      4 H                     0.184324
      5 C                    -0.043760
      6 S                     0.025969
      7 C                    -0.280828
      8 H                     0.107371
      9 H                     0.110375
     10 H                     0.109881
     11 H                     0.204360
     12 C                    -0.008971
     13 C                    -0.230024
     14 C                     0.018367
     15 H                     0.186770
     16 C                    -0.237693
     17 S                     0.027325
     18 C                    -0.271239
     19 H                     0.102770
     20 H                     0.108323
     21 H                     0.107820
     22 H                     0.197755
  ----------------------------------------
  Sum of atomic charges =     0.000000

                    Cartesian Multipole Moments
 -----------------------------------------------------------------
    Charge (ESU x 10^10)
                -0.0000
    Dipole Moment (Debye)
         X       1.4842      Y       0.2422      Z       1.1749
       Tot       1.9084
    Quadrupole Moments (Debye-Ang)
        XX     -86.3450     XY      -2.1097     YY     -68.7284
        XZ      -1.1528     YZ       1.4159     ZZ     -86.5277

 Total job time:  581.12s(wall), 577.69s(cpu)
        *  Thank you very much for using Q-Chem.  Have a nice day.  *
