 Q-Chem 5.4, Q-Chem, Inc., Pleasanton, CA (2021)
 Q-Chem 5.4.0 for Intel X86 EM64T Linux

User input:
--------------------------------------------------------------
$molecule
0 1
C	0.133897	-3.866725	0.763475
C	-0.106669	-3.703963	-0.603206
C	-0.185154	-2.357056	-1.050446
H	-0.226709	-4.561092	-1.283024
C	0.000000	-1.440664	0.000000
S	0.268206	-2.286957	1.521018
C	-0.437628	-1.978743	-2.483610
H	-0.549717	-2.878678	-3.118875
H	0.394664	-1.376015	-2.903464
H	-1.363110	-1.375728	-2.593726
H	0.237880	-4.783437	1.354522
C	0.000000	0.000000	0.000000
C	0.295399	0.811508	1.099446
C	0.768742	2.111949	0.776721
H	0.169256	0.464952	2.136088
C	0.844232	2.319291	-0.612546
S	0.322342	0.885558	-1.486809
C	1.140796	3.134091	1.814609
H	0.995218	2.734123	2.836676
H	0.526006	4.054142	1.726239
H	2.203157	3.443680	1.726228
H	1.168902	3.211257	-1.161575
$end

$rem
JOBTYPE		SP
EXCHANGE	HF
CORRELATION	pRIMP2
BASIS		cc-pvtz
METHOD		rimp2
AUX_BASIS	rimp2-cc-pvtz
SOLVENT_METHOD	PCM
PURECART	11111
SYMMETRY	false
MEM_TOTAL	110000
SCF_CONVERGENCE = 6
THRESH=10
$end

$solvent
dielectric 4.90
$end
--------------------------------------------------------------

             Standard Nuclear Orientation (Angstroms)
    I     Atom           X                Y                Z
 ----------------------------------------------------------------
    1      C       0.1338970000    -3.8667250000     0.7634750000
    2      C      -0.1066690000    -3.7039630000    -0.6032060000
    3      C      -0.1851540000    -2.3570560000    -1.0504460000
    4      H      -0.2267090000    -4.5610920000    -1.2830240000
    5      C       0.0000000000    -1.4406640000     0.0000000000
    6      S       0.2682060000    -2.2869570000     1.5210180000
    7      C      -0.4376280000    -1.9787430000    -2.4836100000
    8      H      -0.5497170000    -2.8786780000    -3.1188750000
    9      H       0.3946640000    -1.3760150000    -2.9034640000
   10      H      -1.3631100000    -1.3757280000    -2.5937260000
   11      H       0.2378800000    -4.7834370000     1.3545220000
   12      C       0.0000000000     0.0000000000     0.0000000000
   13      C       0.2953990000     0.8115080000     1.0994460000
   14      C       0.7687420000     2.1119490000     0.7767210000
   15      H       0.1692560000     0.4649520000     2.1360880000
   16      C       0.8442320000     2.3192910000    -0.6125460000
   17      S       0.3223420000     0.8855580000    -1.4868090000
   18      C       1.1407960000     3.1340910000     1.8146090000
   19      H       0.9952180000     2.7341230000     2.8366760000
   20      H       0.5260060000     4.0541420000     1.7262390000
   21      H       2.2031570000     3.4436800000     1.7262280000
   22      H       1.1689020000     3.2112570000    -1.1615750000
 ----------------------------------------------------------------

   10   -1179.6787179852      5.17e-07  Convergence criterion met
 Total energy in the final basis set =    -1179.6787179852
        RIMP2         total energy =     -1181.6612054959 a.u.

                    Orbital Energies (a.u.)
 --------------------------------------------------------------

 Alpha MOs
 -- Occupied --
-91.9851 -91.9838 -11.2820 -11.2780 -11.2713 -11.2646 -11.2528 -11.2520
-11.2429 -11.2420 -11.2298 -11.2292  -8.9849  -8.9837  -6.6658  -6.6652
 -6.6647  -6.6646  -6.6641  -6.6635  -1.1822  -1.1498  -1.0426  -1.0254
 -0.9992  -0.9520  -0.9150  -0.8950  -0.7999  -0.7655  -0.7202  -0.6954
 -0.6628  -0.6161  -0.5844  -0.5822  -0.5779  -0.5698  -0.5529  -0.5344
 -0.5234  -0.5209  -0.5116  -0.4963  -0.4880  -0.4673  -0.4505  -0.3698
 -0.3433  -0.3407  -0.2678

          Ground-State Mulliken Net Atomic Charges

     Atom                 Charge (a.u.)
  ----------------------------------------
      1 C                    -0.214497
      2 C                    -0.251499
      3 C                     0.046421
      4 H                     0.184532
      5 C                    -0.020929
      6 S                     0.004656
      7 C                    -0.320874
      8 H                     0.116947
      9 H                     0.113067
     10 H                     0.119014
     11 H                     0.206655
     12 C                     0.059454
     13 C                    -0.293141
     14 C                     0.050384
     15 H                     0.177762
     16 C                    -0.259204
     17 S                     0.031239
     18 C                    -0.269004
     19 H                     0.102941
     20 H                     0.108395
     21 H                     0.109043
     22 H                     0.198640
  ----------------------------------------
  Sum of atomic charges =     0.000000

                    Cartesian Multipole Moments
 -----------------------------------------------------------------
    Charge (ESU x 10^10)
                -0.0000
    Dipole Moment (Debye)
         X       0.4105      Y       0.2078      Z      -0.1258
       Tot       0.4770
    Quadrupole Moments (Debye-Ang)
        XX     -91.2519     XY       3.9388     YY     -70.1258
        XZ       1.4945     YZ       3.2882     ZZ     -80.0377

 Total job time:  558.72s(wall), 554.91s(cpu)
        *  Thank you very much for using Q-Chem.  Have a nice day.  *
