 Q-Chem 5.4, Q-Chem, Inc., Pleasanton, CA (2021)
 Q-Chem 5.4.0 for Intel X86 EM64T Linux

User input:
--------------------------------------------------------------
$molecule
0 1
C	0.593324	-3.866725	0.498788
C	-0.469446	-3.703963	-0.393517
C	-0.817050	-2.357056	-0.685674
H	-0.998381	-4.561092	-0.837128
C	0.000000	-1.440664	0.000000
S	1.183149	-2.286957	0.992768
C	-1.931676	-1.978743	-1.621254
H	-2.425882	-2.878678	-2.035845
H	-1.563980	-1.376015	-2.477868
H	-2.711417	-1.375728	-1.110719
H	1.052896	-4.783437	0.884718
C	0.000000	0.000000	0.000000
C	0.000033	0.863600	1.099446
C	0.000052	2.247508	0.776721
H	0.000026	0.494801	2.136088
C	0.000074	2.468165	-0.612546
S	0.000024	0.942399	-1.486809
C	0.000075	3.335257	1.814609
H	0.000074	2.909620	2.836676
H	-0.892314	3.989552	1.726239
H	0.892483	3.989525	1.726228
H	0.000094	3.417382	-1.161575
$end

$rem
JOBTYPE		SP
EXCHANGE	HF
CORRELATION	pRIMP2
BASIS		cc-pvtz
METHOD		rimp2
AUX_BASIS	rimp2-cc-pvtz
SOLVENT_METHOD	PCM
PURECART	11111
SYMMETRY	false
MEM_TOTAL	110000
SCF_CONVERGENCE = 6
THRESH=10
$end

$solvent
dielectric 4.90
$end
--------------------------------------------------------------

             Standard Nuclear Orientation (Angstroms)
    I     Atom           X                Y                Z
 ----------------------------------------------------------------
    1      C       0.5933240000    -3.8667250000     0.4987880000
    2      C      -0.4694460000    -3.7039630000    -0.3935170000
    3      C      -0.8170500000    -2.3570560000    -0.6856740000
    4      H      -0.9983810000    -4.5610920000    -0.8371280000
    5      C       0.0000000000    -1.4406640000     0.0000000000
    6      S       1.1831490000    -2.2869570000     0.9927680000
    7      C      -1.9316760000    -1.9787430000    -1.6212540000
    8      H      -2.4258820000    -2.8786780000    -2.0358450000
    9      H      -1.5639800000    -1.3760150000    -2.4778680000
   10      H      -2.7114170000    -1.3757280000    -1.1107190000
   11      H       1.0528960000    -4.7834370000     0.8847180000
   12      C       0.0000000000     0.0000000000     0.0000000000
   13      C       0.0000330000     0.8636000000     1.0994460000
   14      C       0.0000520000     2.2475080000     0.7767210000
   15      H       0.0000260000     0.4948010000     2.1360880000
   16      C       0.0000740000     2.4681650000    -0.6125460000
   17      S       0.0000240000     0.9423990000    -1.4868090000
   18      C       0.0000750000     3.3352570000     1.8146090000
   19      H       0.0000740000     2.9096200000     2.8366760000
   20      H      -0.8923140000     3.9895520000     1.7262390000
   21      H       0.8924830000     3.9895250000     1.7262280000
   22      H       0.0000940000     3.4173820000    -1.1615750000
 ----------------------------------------------------------------

   10   -1179.6868570133      5.15e-07  Convergence criterion met
 Total energy in the final basis set =    -1179.6868570133
        RIMP2         total energy =     -1181.6654410327 a.u.

                    Orbital Energies (a.u.)
 --------------------------------------------------------------

 Alpha MOs
 -- Occupied --
-91.9855 -91.9853 -11.2813 -11.2752 -11.2722 -11.2641 -11.2533 -11.2513
-11.2427 -11.2416 -11.2291 -11.2289  -8.9851  -8.9849  -6.6660  -6.6658
 -6.6654  -6.6652  -6.6648  -6.6646  -1.1796  -1.1498  -1.0408  -1.0236
 -0.9985  -0.9531  -0.9144  -0.8929  -0.8006  -0.7602  -0.7246  -0.6948
 -0.6627  -0.6162  -0.5830  -0.5780  -0.5751  -0.5697  -0.5522  -0.5333
 -0.5267  -0.5196  -0.5088  -0.4945  -0.4884  -0.4671  -0.4580  -0.3517
 -0.3429  -0.3378  -0.2825

          Ground-State Mulliken Net Atomic Charges

     Atom                 Charge (a.u.)
  ----------------------------------------
      1 C                    -0.215623
      2 C                    -0.247470
      3 C                     0.027710
      4 H                     0.184637
      5 C                    -0.025817
      6 S                     0.022783
      7 C                    -0.292393
      8 H                     0.109963
      9 H                     0.111916
     10 H                     0.114430
     11 H                     0.204842
     12 C                     0.016189
     13 C                    -0.249760
     14 C                     0.022510
     15 H                     0.188010
     16 C                    -0.241335
     17 S                     0.023404
     18 C                    -0.271509
     19 H                     0.102933
     20 H                     0.108065
     21 H                     0.108411
     22 H                     0.198104
  ----------------------------------------
  Sum of atomic charges =     0.000000

                    Cartesian Multipole Moments
 -----------------------------------------------------------------
    Charge (ESU x 10^10)
                -0.0000
    Dipole Moment (Debye)
         X      -1.1568      Y       0.2141      Z       0.4396
       Tot       1.2559
    Quadrupole Moments (Debye-Ang)
        XX     -88.8855     XY       1.6175     YY     -68.7223
        XZ       3.3117     YZ       2.4031     ZZ     -83.9162

 Total job time:  578.55s(wall), 574.68s(cpu)
        *  Thank you very much for using Q-Chem.  Have a nice day.  *
