 Q-Chem 5.4, Q-Chem, Inc., Pleasanton, CA (2021)
 Q-Chem 5.4.0 for Intel X86 EM64T Linux

User input:
--------------------------------------------------------------
$molecule
0 1
C	0.671636	-3.866725	-0.386946
C	-0.530345	-3.703963	0.306544
C	-0.923770	-2.357056	0.533261
H	-1.128109	-4.561092	0.651857
C	0.000000	-1.440664	0.000000
S	1.337557	-2.286957	-0.772250
C	-2.184153	-1.978743	1.260680
H	-2.742769	-2.878678	1.583283
H	-2.863347	-1.376015	0.622180
H	-1.971094	-1.375728	2.168011
H	1.191474	-4.783437	-0.686807
C	0.000000	0.000000	0.000000
C	0.223548	0.834165	1.099446
C	0.581748	2.170912	0.776721
H	0.128089	0.477934	2.136088
C	0.638880	2.384045	-0.612546
S	0.243934	0.910282	-1.486809
C	0.863301	3.221592	1.814609
H	0.753137	2.810458	2.836676
H	0.170663	4.084559	1.726239
H	1.894637	3.622593	1.726228
H	0.884575	3.300913	-1.161575
$end

$rem
JOBTYPE		SP
EXCHANGE	HF
CORRELATION	pRIMP2
BASIS		cc-pvtz
METHOD		rimp2
AUX_BASIS	rimp2-cc-pvtz
SOLVENT_METHOD	PCM
PURECART	11111
SYMMETRY	false
MEM_TOTAL	110000
SCF_CONVERGENCE = 6
THRESH=10
$end

$solvent
dielectric 4.90
$end
--------------------------------------------------------------

             Standard Nuclear Orientation (Angstroms)
    I     Atom           X                Y                Z
 ----------------------------------------------------------------
    1      C       0.6716360000    -3.8667250000    -0.3869460000
    2      C      -0.5303450000    -3.7039630000     0.3065440000
    3      C      -0.9237700000    -2.3570560000     0.5332610000
    4      H      -1.1281090000    -4.5610920000     0.6518570000
    5      C       0.0000000000    -1.4406640000     0.0000000000
    6      S       1.3375570000    -2.2869570000    -0.7722500000
    7      C      -2.1841530000    -1.9787430000     1.2606800000
    8      H      -2.7427690000    -2.8786780000     1.5832830000
    9      H      -2.8633470000    -1.3760150000     0.6221800000
   10      H      -1.9710940000    -1.3757280000     2.1680110000
   11      H       1.1914740000    -4.7834370000    -0.6868070000
   12      C       0.0000000000     0.0000000000     0.0000000000
   13      C       0.2235480000     0.8341650000     1.0994460000
   14      C       0.5817480000     2.1709120000     0.7767210000
   15      H       0.1280890000     0.4779340000     2.1360880000
   16      C       0.6388800000     2.3840450000    -0.6125460000
   17      S       0.2439340000     0.9102820000    -1.4868090000
   18      C       0.8633010000     3.2215920000     1.8146090000
   19      H       0.7531370000     2.8104580000     2.8366760000
   20      H       0.1706630000     4.0845590000     1.7262390000
   21      H       1.8946370000     3.6225930000     1.7262280000
   22      H       0.8845750000     3.3009130000    -1.1615750000
 ----------------------------------------------------------------

   10   -1179.6819945946      5.05e-07  Convergence criterion met
 Total energy in the final basis set =    -1179.6819945946
        RIMP2         total energy =     -1181.6610539075 a.u.

                    Orbital Energies (a.u.)
 --------------------------------------------------------------

 Alpha MOs
 -- Occupied --
-91.9860 -91.9845 -11.2789 -11.2742 -11.2710 -11.2658 -11.2519 -11.2516
-11.2432 -11.2417 -11.2293 -11.2292  -8.9855  -8.9842  -6.6664  -6.6659
 -6.6653  -6.6650  -6.6645  -6.6639  -1.1796  -1.1495  -1.0408  -1.0235
 -0.9964  -0.9552  -0.9125  -0.8928  -0.8016  -0.7524  -0.7315  -0.6957
 -0.6618  -0.6158  -0.5841  -0.5796  -0.5698  -0.5674  -0.5521  -0.5335
 -0.5301  -0.5202  -0.5077  -0.4912  -0.4857  -0.4692  -0.4598  -0.3517
 -0.3394  -0.3329  -0.2878

          Ground-State Mulliken Net Atomic Charges

     Atom                 Charge (a.u.)
  ----------------------------------------
      1 C                    -0.212267
      2 C                    -0.249752
      3 C                     0.046124
      4 H                     0.183690
      5 C                    -0.046431
      6 S                     0.024244
      7 C                    -0.283899
      8 H                     0.107819
      9 H                     0.111133
     10 H                     0.107888
     11 H                     0.204530
     12 C                    -0.009053
     13 C                    -0.222906
     14 C                     0.017377
     15 H                     0.189705
     16 C                    -0.233466
     17 S                     0.020164
     18 C                    -0.271712
     19 H                     0.102390
     20 H                     0.107986
     21 H                     0.108423
     22 H                     0.198014
  ----------------------------------------
  Sum of atomic charges =     0.000000

                    Cartesian Multipole Moments
 -----------------------------------------------------------------
    Charge (ESU x 10^10)
                -0.0000
    Dipole Moment (Debye)
         X      -0.7623      Y       0.3470      Z       2.2036
       Tot       2.3574
    Quadrupole Moments (Debye-Ang)
        XX     -87.1056     XY       4.5534     YY     -69.6850
        XZ      -2.5377     YZ      -0.1132     ZZ     -85.0196

 Total job time:  546.60s(wall), 543.50s(cpu)
        *  Thank you very much for using Q-Chem.  Have a nice day.  *
