 Q-Chem 5.4, Q-Chem, Inc., Pleasanton, CA (2021)
 Q-Chem 5.4.0 for Intel X86 EM64T Linux

User input:
--------------------------------------------------------------
$molecule
0 1
C	0.594240	-3.866725	-0.497696
C	-0.469057	-3.703963	0.393981
C	-0.817136	-2.357056	0.685571
H	-0.997777	-4.561092	0.837848
C	0.000000	-1.440664	0.000000
S	1.183137	-2.286957	-0.992782
C	-1.932056	-1.978743	1.620802
H	-2.426166	-2.878678	2.035506
H	-2.711806	-1.376015	1.109943
H	-1.564678	-1.375728	2.477350
H	1.054110	-4.783437	-0.883271
C	0.000000	0.000000	0.000000
C	0.747916	0.431772	1.099446
C	1.946425	1.123709	0.776721
H	0.428523	0.247378	2.136088
C	2.137531	1.234018	-0.612546
S	0.816154	0.471179	-1.486809
C	2.888455	1.667564	1.814609
H	2.519842	1.454746	2.836676
H	3.008896	2.767543	1.726239
H	3.901271	1.221850	1.726228
H	2.959587	1.708609	-1.161575
$end

$rem
JOBTYPE		SP
EXCHANGE	HF
CORRELATION	pRIMP2
BASIS		cc-pvtz
METHOD		rimp2
AUX_BASIS	rimp2-cc-pvtz
SOLVENT_METHOD	PCM
PURECART	11111
SYMMETRY	false
MEM_TOTAL	110000
SCF_CONVERGENCE = 6
THRESH=10
$end

$solvent
dielectric 4.90
$end
--------------------------------------------------------------

             Standard Nuclear Orientation (Angstroms)
    I     Atom           X                Y                Z
 ----------------------------------------------------------------
    1      C       0.5942400000    -3.8667250000    -0.4976960000
    2      C      -0.4690570000    -3.7039630000     0.3939810000
    3      C      -0.8171360000    -2.3570560000     0.6855710000
    4      H      -0.9977770000    -4.5610920000     0.8378480000
    5      C       0.0000000000    -1.4406640000     0.0000000000
    6      S       1.1831370000    -2.2869570000    -0.9927820000
    7      C      -1.9320560000    -1.9787430000     1.6208020000
    8      H      -2.4261660000    -2.8786780000     2.0355060000
    9      H      -2.7118060000    -1.3760150000     1.1099430000
   10      H      -1.5646780000    -1.3757280000     2.4773500000
   11      H       1.0541100000    -4.7834370000    -0.8832710000
   12      C       0.0000000000     0.0000000000     0.0000000000
   13      C       0.7479160000     0.4317720000     1.0994460000
   14      C       1.9464250000     1.1237090000     0.7767210000
   15      H       0.4285230000     0.2473780000     2.1360880000
   16      C       2.1375310000     1.2340180000    -0.6125460000
   17      S       0.8161540000     0.4711790000    -1.4868090000
   18      C       2.8884550000     1.6675640000     1.8146090000
   19      H       2.5198420000     1.4547460000     2.8366760000
   20      H       3.0088960000     2.7675430000     1.7262390000
   21      H       3.9012710000     1.2218500000     1.7262280000
   22      H       2.9595870000     1.7086090000    -1.1615750000
 ----------------------------------------------------------------

   10   -1179.6106500433      9.97e-07  Convergence criterion met
 Total energy in the final basis set =    -1179.6106500433
        RIMP2         total energy =     -1181.6063989770 a.u.

                    Orbital Energies (a.u.)
 --------------------------------------------------------------

 Alpha MOs
 -- Occupied --
-91.9854 -91.9748 -11.2931 -11.2756 -11.2695 -11.2560 -11.2559 -11.2522
-11.2346 -11.2321 -11.2304 -11.2241  -8.9864  -8.9749  -6.6671  -6.6662
 -6.6660  -6.6557  -6.6550  -6.6543  -1.1947  -1.1434  -1.0484  -1.0182
 -0.9994  -0.9539  -0.9084  -0.8909  -0.8009  -0.7516  -0.7363  -0.6935
 -0.6533  -0.6219  -0.5916  -0.5796  -0.5678  -0.5649  -0.5484  -0.5378
 -0.5344  -0.5162  -0.5062  -0.4892  -0.4805  -0.4553  -0.4497  -0.3642
 -0.3412  -0.3231  -0.2711

          Ground-State Mulliken Net Atomic Charges

     Atom                 Charge (a.u.)
  ----------------------------------------
      1 C                    -0.266402
      2 C                    -0.236902
      3 C                    -0.008295
      4 H                     0.179077
      5 C                     0.005638
      6 S                     0.016327
      7 C                    -0.289794
      8 H                     0.105419
      9 H                     0.105581
     10 H                     0.100495
     11 H                     0.198248
     12 C                    -0.121580
     13 C                    -0.085345
     14 C                    -0.020858
     15 H                     0.198872
     16 C                    -0.167079
     17 S                     0.030916
     18 C                    -0.266835
     19 H                     0.103159
     20 H                     0.108113
     21 H                     0.106854
     22 H                     0.204392
  ----------------------------------------
  Sum of atomic charges =     0.000000

                    Cartesian Multipole Moments
 -----------------------------------------------------------------
    Charge (ESU x 10^10)
                -0.0000
    Dipole Moment (Debye)
         X       2.0482      Y       1.5332      Z       2.3984
       Tot       3.5069
    Quadrupole Moments (Debye-Ang)
        XX     -79.4181     XY       7.5318     YY     -82.3321
        XZ      -2.2888     YZ      -1.0141     ZZ     -83.0220

 Total job time:  587.86s(wall), 584.06s(cpu)
        *  Thank you very much for using Q-Chem.  Have a nice day.  *
