 Q-Chem 5.4, Q-Chem, Inc., Pleasanton, CA (2021)
 Q-Chem 5.4.0 for Intel X86 EM64T Linux

User input:
--------------------------------------------------------------
$molecule
0 1
C	0.388181	-3.866725	-0.670924
C	-0.306020	-3.703963	0.530648
C	-0.533378	-2.357056	0.923703
H	-0.651043	-4.561092	1.128579
C	0.000000	-1.440664	0.000000
S	0.772234	-2.286957	-1.337567
C	-1.261192	-1.978743	2.183857
H	-1.583666	-2.878678	2.742548
H	-2.168641	-1.376015	1.970497
H	-0.623012	-1.375728	2.863099
H	0.688443	-4.783437	-1.190530
C	0.000000	0.000000	0.000000
C	0.000033	0.863600	1.099446
C	0.000052	2.247508	0.776721
H	0.000026	0.494801	2.136088
C	0.000074	2.468165	-0.612546
S	0.000024	0.942399	-1.486809
C	0.000075	3.335257	1.814609
H	0.000074	2.909620	2.836676
H	-0.892314	3.989552	1.726239
H	0.892483	3.989525	1.726228
H	0.000094	3.417382	-1.161575
$end

$rem
JOBTYPE		SP
EXCHANGE	HF
CORRELATION	pRIMP2
BASIS		cc-pvtz
METHOD		rimp2
AUX_BASIS	rimp2-cc-pvtz
SOLVENT_METHOD	PCM
PURECART	11111
SYMMETRY	false
MEM_TOTAL	110000
SCF_CONVERGENCE = 6
THRESH=10
$end

$solvent
dielectric 4.90
$end
--------------------------------------------------------------

             Standard Nuclear Orientation (Angstroms)
    I     Atom           X                Y                Z
 ----------------------------------------------------------------
    1      C       0.3881810000    -3.8667250000    -0.6709240000
    2      C      -0.3060200000    -3.7039630000     0.5306480000
    3      C      -0.5333780000    -2.3570560000     0.9237030000
    4      H      -0.6510430000    -4.5610920000     1.1285790000
    5      C       0.0000000000    -1.4406640000     0.0000000000
    6      S       0.7722340000    -2.2869570000    -1.3375670000
    7      C      -1.2611920000    -1.9787430000     2.1838570000
    8      H      -1.5836660000    -2.8786780000     2.7425480000
    9      H      -2.1686410000    -1.3760150000     1.9704970000
   10      H      -0.6230120000    -1.3757280000     2.8630990000
   11      H       0.6884430000    -4.7834370000    -1.1905300000
   12      C       0.0000000000     0.0000000000     0.0000000000
   13      C       0.0000330000     0.8636000000     1.0994460000
   14      C       0.0000520000     2.2475080000     0.7767210000
   15      H       0.0000260000     0.4948010000     2.1360880000
   16      C       0.0000740000     2.4681650000    -0.6125460000
   17      S       0.0000240000     0.9423990000    -1.4868090000
   18      C       0.0000750000     3.3352570000     1.8146090000
   19      H       0.0000740000     2.9096200000     2.8366760000
   20      H      -0.8923140000     3.9895520000     1.7262390000
   21      H       0.8924830000     3.9895250000     1.7262280000
   22      H       0.0000940000     3.4173820000    -1.1615750000
 ----------------------------------------------------------------

   10   -1179.6864076769      5.26e-07  Convergence criterion met
 Total energy in the final basis set =    -1179.6864076769
        RIMP2         total energy =     -1181.6657666261 a.u.

                    Orbital Energies (a.u.)
 --------------------------------------------------------------

 Alpha MOs
 -- Occupied --
-91.9862 -91.9854 -11.2830 -11.2776 -11.2726 -11.2638 -11.2540 -11.2522
-11.2438 -11.2404 -11.2309 -11.2294  -8.9858  -8.9853  -6.6668  -6.6662
 -6.6662  -6.6657  -6.6656  -6.6650  -1.1809  -1.1503  -1.0417  -1.0265
 -0.9962  -0.9563  -0.9139  -0.8941  -0.8031  -0.7559  -0.7284  -0.6993
 -0.6625  -0.6147  -0.5887  -0.5814  -0.5702  -0.5642  -0.5522  -0.5384
 -0.5299  -0.5227  -0.5057  -0.4909  -0.4888  -0.4747  -0.4545  -0.3636
 -0.3448  -0.3393  -0.2736

          Ground-State Mulliken Net Atomic Charges

     Atom                 Charge (a.u.)
  ----------------------------------------
      1 C                    -0.214764
      2 C                    -0.250351
      3 C                     0.057969
      4 H                     0.184285
      5 C                    -0.041118
      6 S                     0.013535
      7 C                    -0.302253
      8 H                     0.114339
      9 H                     0.117212
     10 H                     0.106860
     11 H                     0.206309
     12 C                     0.020329
     13 C                    -0.241561
     14 C                     0.022517
     15 H                     0.193536
     16 C                    -0.247909
     17 S                     0.014844
     18 C                    -0.272174
     19 H                     0.101846
     20 H                     0.108600
     21 H                     0.108970
     22 H                     0.198978
  ----------------------------------------
  Sum of atomic charges =     0.000000

                    Cartesian Multipole Moments
 -----------------------------------------------------------------
    Charge (ESU x 10^10)
                -0.0000
    Dipole Moment (Debye)
         X      -0.7520      Y       0.1543      Z       2.7338
       Tot       2.8396
    Quadrupole Moments (Debye-Ang)
        XX     -91.0962     XY       1.0475     YY     -68.3253
        XZ      -2.8841     YZ      -0.8233     ZZ     -81.7686

 Total job time:  587.79s(wall), 584.79s(cpu)
        *  Thank you very much for using Q-Chem.  Have a nice day.  *
