 Q-Chem 5.4, Q-Chem, Inc., Pleasanton, CA (2021)
 Q-Chem 5.4.0 for Intel X86 EM64T Linux

User input:
--------------------------------------------------------------
$molecule
0 1
C	0.133897	-3.866725	0.763475
C	-0.106669	-3.703963	-0.603206
C	-0.185154	-2.357056	-1.050446
H	-0.226709	-4.561092	-1.283024
C	0.000000	-1.440664	0.000000
S	0.268206	-2.286957	1.521018
C	-0.437628	-1.978743	-2.483610
H	-0.549717	-2.878678	-3.118875
H	0.394664	-1.376015	-2.903464
H	-1.363110	-1.375728	-2.593726
H	0.237880	-4.783437	1.354522
C	0.000000	0.000000	0.000000
C	0.431829	0.747884	1.099446
C	1.123799	1.946373	0.776721
H	0.247423	0.428497	2.136088
C	1.234147	2.137457	-0.612546
S	0.471221	0.816130	-1.486809
C	1.667694	2.888380	1.814609
H	1.454874	2.519768	2.836676
H	1.222009	3.901210	1.726239
H	2.767675	3.008788	1.726228
H	1.708773	2.959493	-1.161575
$end

$rem
JOBTYPE		SP
EXCHANGE	HF
CORRELATION	pRIMP2
BASIS		cc-pvtz
METHOD		rimp2
AUX_BASIS	rimp2-cc-pvtz
SOLVENT_METHOD	PCM
PURECART	11111
SYMMETRY	false
MEM_TOTAL	110000
SCF_CONVERGENCE = 6
THRESH=10
$end

$solvent
dielectric 4.90
$end
--------------------------------------------------------------

             Standard Nuclear Orientation (Angstroms)
    I     Atom           X                Y                Z
 ----------------------------------------------------------------
    1      C       0.1338970000    -3.8667250000     0.7634750000
    2      C      -0.1066690000    -3.7039630000    -0.6032060000
    3      C      -0.1851540000    -2.3570560000    -1.0504460000
    4      H      -0.2267090000    -4.5610920000    -1.2830240000
    5      C       0.0000000000    -1.4406640000     0.0000000000
    6      S       0.2682060000    -2.2869570000     1.5210180000
    7      C      -0.4376280000    -1.9787430000    -2.4836100000
    8      H      -0.5497170000    -2.8786780000    -3.1188750000
    9      H       0.3946640000    -1.3760150000    -2.9034640000
   10      H      -1.3631100000    -1.3757280000    -2.5937260000
   11      H       0.2378800000    -4.7834370000     1.3545220000
   12      C       0.0000000000     0.0000000000     0.0000000000
   13      C       0.4318290000     0.7478840000     1.0994460000
   14      C       1.1237990000     1.9463730000     0.7767210000
   15      H       0.2474230000     0.4284970000     2.1360880000
   16      C       1.2341470000     2.1374570000    -0.6125460000
   17      S       0.4712210000     0.8161300000    -1.4868090000
   18      C       1.6676940000     2.8883800000     1.8146090000
   19      H       1.4548740000     2.5197680000     2.8366760000
   20      H       1.2220090000     3.9012100000     1.7262390000
   21      H       2.7676750000     3.0087880000     1.7262280000
   22      H       1.7087730000     2.9594930000    -1.1615750000
 ----------------------------------------------------------------

   10   -1179.6679762919      5.41e-07  Convergence criterion met
 Total energy in the final basis set =    -1179.6679762919
        RIMP2         total energy =     -1181.6533354183 a.u.

                    Orbital Energies (a.u.)
 --------------------------------------------------------------

 Alpha MOs
 -- Occupied --
-91.9848 -91.9821 -11.2787 -11.2776 -11.2686 -11.2685 -11.2534 -11.2487
-11.2455 -11.2418 -11.2296 -11.2286  -8.9848  -8.9821  -6.6657  -6.6651
 -6.6644  -6.6631  -6.6625  -6.6618  -1.1833  -1.1492  -1.0433  -1.0245
 -0.9995  -0.9514  -0.9144  -0.8949  -0.7990  -0.7656  -0.7210  -0.6946
 -0.6614  -0.6165  -0.5844  -0.5823  -0.5782  -0.5700  -0.5524  -0.5343
 -0.5238  -0.5203  -0.5117  -0.4960  -0.4843  -0.4666  -0.4494  -0.3692
 -0.3435  -0.3398  -0.2665

          Ground-State Mulliken Net Atomic Charges

     Atom                 Charge (a.u.)
  ----------------------------------------
      1 C                    -0.219893
      2 C                    -0.249525
      3 C                     0.042839
      4 H                     0.183914
      5 C                    -0.020073
      6 S                     0.000951
      7 C                    -0.318810
      8 H                     0.115300
      9 H                     0.112672
     10 H                     0.118109
     11 H                     0.205422
     12 C                     0.036868
     13 C                    -0.273104
     14 C                     0.046228
     15 H                     0.179764
     16 C                    -0.248595
     17 S                     0.035995
     18 C                    -0.267705
     19 H                     0.103114
     20 H                     0.108566
     21 H                     0.108705
     22 H                     0.199256
  ----------------------------------------
  Sum of atomic charges =     0.000000

                    Cartesian Multipole Moments
 -----------------------------------------------------------------
    Charge (ESU x 10^10)
                -0.0000
    Dipole Moment (Debye)
         X       0.8436      Y       0.4699      Z      -0.0947
       Tot       0.9703
    Quadrupole Moments (Debye-Ang)
        XX     -89.6687     XY       5.2973     YY     -72.2364
        XZ       1.5656     YZ       3.2285     ZZ     -80.0686

 Total job time:  565.75s(wall), 560.94s(cpu)
        *  Thank you very much for using Q-Chem.  Have a nice day.  *
