 Q-Chem 5.4, Q-Chem, Inc., Pleasanton, CA (2021)
 Q-Chem 5.4.0 for Intel X86 EM64T Linux

User input:
--------------------------------------------------------------
$molecule
0 1
C	-0.388181	-3.866725	0.670924
C	0.306020	-3.703963	-0.530648
C	0.533378	-2.357056	-0.923703
H	0.651043	-4.561092	-1.128579
C	0.000000	-1.440664	0.000000
S	-0.772234	-2.286957	1.337567
C	1.261192	-1.978743	-2.183857
H	1.583666	-2.878678	-2.742548
H	2.168641	-1.376015	-1.970497
H	0.623012	-1.375728	-2.863099
H	-0.688443	-4.783437	1.190530
C	0.000000	0.000000	0.000000
C	0.747916	0.431772	1.099446
C	1.946425	1.123709	0.776721
H	0.428523	0.247378	2.136088
C	2.137531	1.234018	-0.612546
S	0.816154	0.471179	-1.486809
C	2.888455	1.667564	1.814609
H	2.519842	1.454746	2.836676
H	3.008896	2.767543	1.726239
H	3.901271	1.221850	1.726228
H	2.959587	1.708609	-1.161575
$end

$rem
JOBTYPE		SP
EXCHANGE	HF
CORRELATION	pRIMP2
BASIS		cc-pvtz
METHOD		rimp2
AUX_BASIS	rimp2-cc-pvtz
SOLVENT_METHOD	PCM
PURECART	11111
SYMMETRY	false
MEM_TOTAL	110000
SCF_CONVERGENCE = 6
THRESH=10
$end

$solvent
dielectric 4.90
$end
--------------------------------------------------------------

             Standard Nuclear Orientation (Angstroms)
    I     Atom           X                Y                Z
 ----------------------------------------------------------------
    1      C      -0.3881810000    -3.8667250000     0.6709240000
    2      C       0.3060200000    -3.7039630000    -0.5306480000
    3      C       0.5333780000    -2.3570560000    -0.9237030000
    4      H       0.6510430000    -4.5610920000    -1.1285790000
    5      C       0.0000000000    -1.4406640000     0.0000000000
    6      S      -0.7722340000    -2.2869570000     1.3375670000
    7      C       1.2611920000    -1.9787430000    -2.1838570000
    8      H       1.5836660000    -2.8786780000    -2.7425480000
    9      H       2.1686410000    -1.3760150000    -1.9704970000
   10      H       0.6230120000    -1.3757280000    -2.8630990000
   11      H      -0.6884430000    -4.7834370000     1.1905300000
   12      C       0.0000000000     0.0000000000     0.0000000000
   13      C       0.7479160000     0.4317720000     1.0994460000
   14      C       1.9464250000     1.1237090000     0.7767210000
   15      H       0.4285230000     0.2473780000     2.1360880000
   16      C       2.1375310000     1.2340180000    -0.6125460000
   17      S       0.8161540000     0.4711790000    -1.4868090000
   18      C       2.8884550000     1.6675640000     1.8146090000
   19      H       2.5198420000     1.4547460000     2.8366760000
   20      H       3.0088960000     2.7675430000     1.7262390000
   21      H       3.9012710000     1.2218500000     1.7262280000
   22      H       2.9595870000     1.7086090000    -1.1615750000
 ----------------------------------------------------------------

   11   -1179.5831108113      6.15e-07  Convergence criterion met
 Total energy in the final basis set =    -1179.5831108113
        RIMP2         total energy =     -1181.5871518419 a.u.

                    Orbital Energies (a.u.)
 --------------------------------------------------------------

 Alpha MOs
 -- Occupied --
-91.9794 -91.9727 -11.2887 -11.2817 -11.2640 -11.2566 -11.2563 -11.2537
-11.2375 -11.2338 -11.2312 -11.2204  -8.9817  -8.9733  -6.6620  -6.6614
 -6.6610  -6.6543  -6.6537  -6.6531  -1.1940  -1.1442  -1.0483  -1.0255
 -0.9972  -0.9503  -0.9096  -0.8965  -0.7928  -0.7649  -0.7276  -0.6948
 -0.6542  -0.6216  -0.5911  -0.5845  -0.5765  -0.5689  -0.5496  -0.5383
 -0.5246  -0.5219  -0.5113  -0.4949  -0.4665  -0.4497  -0.4414  -0.3660
 -0.3373  -0.3281  -0.2638

          Ground-State Mulliken Net Atomic Charges

     Atom                 Charge (a.u.)
  ----------------------------------------
      1 C                    -0.238411
      2 C                    -0.252455
      3 C                    -0.010337
      4 H                     0.182621
      5 C                     0.015161
      6 S                    -0.023483
      7 C                    -0.261295
      8 H                     0.097408
      9 H                     0.108174
     10 H                     0.103723
     11 H                     0.199843
     12 C                    -0.119236
     13 C                    -0.095903
     14 C                    -0.026516
     15 H                     0.190758
     16 C                    -0.182457
     17 S                     0.058212
     18 C                    -0.265244
     19 H                     0.103701
     20 H                     0.107041
     21 H                     0.105425
     22 H                     0.203269
  ----------------------------------------
  Sum of atomic charges =     0.000000

                    Cartesian Multipole Moments
 -----------------------------------------------------------------
    Charge (ESU x 10^10)
                -0.0000
    Dipole Moment (Debye)
         X       3.7537      Y       1.2258      Z      -0.0646
       Tot       3.9494
    Quadrupole Moments (Debye-Ang)
        XX     -81.3864     XY       4.3570     YY     -82.5404
        XZ      -2.3111     YZ       2.4742     ZZ     -81.0658

 Total job time:  652.97s(wall), 649.56s(cpu)
        *  Thank you very much for using Q-Chem.  Have a nice day.  *
