 Q-Chem 5.4, Q-Chem, Inc., Pleasanton, CA (2021)
 Q-Chem 5.4.0 for Intel X86 EM64T Linux

User input:
--------------------------------------------------------------
$molecule
0 1
C	-0.135301	-3.866725	0.763228
C	0.106073	-3.703963	-0.603311
C	0.185286	-2.357056	-1.050423
H	0.225783	-4.561092	-1.283188
C	-0.000000	-1.440664	-0.000000
S	-0.268187	-2.286957	1.521021
C	0.438209	-1.978743	-2.483507
H	0.550153	-2.878678	-3.118798
H	1.363906	-1.376015	-2.593381
H	-0.393798	-1.375728	-2.903516
H	-0.239740	-4.783437	1.354194
C	0.000000	0.000000	0.000000
C	0.431829	0.747884	1.099446
C	1.123799	1.946373	0.776721
H	0.247423	0.428497	2.136088
C	1.234147	2.137457	-0.612546
S	0.471221	0.816130	-1.486809
C	1.667694	2.888380	1.814609
H	1.454874	2.519768	2.836676
H	1.222009	3.901210	1.726239
H	2.767675	3.008788	1.726228
H	1.708773	2.959493	-1.161575
$end

$rem
JOBTYPE		SP
EXCHANGE	HF
CORRELATION	pRIMP2
BASIS		cc-pvtz
METHOD		rimp2
AUX_BASIS	rimp2-cc-pvtz
SOLVENT_METHOD	PCM
PURECART	11111
SYMMETRY	false
MEM_TOTAL	110000
SCF_CONVERGENCE = 6
THRESH=10
$end

$solvent
dielectric 4.90
$end
--------------------------------------------------------------

             Standard Nuclear Orientation (Angstroms)
    I     Atom           X                Y                Z
 ----------------------------------------------------------------
    1      C      -0.1353010000    -3.8667250000     0.7632280000
    2      C       0.1060730000    -3.7039630000    -0.6033110000
    3      C       0.1852860000    -2.3570560000    -1.0504230000
    4      H       0.2257830000    -4.5610920000    -1.2831880000
    5      C       0.0000000000    -1.4406640000     0.0000000000
    6      S      -0.2681870000    -2.2869570000     1.5210210000
    7      C       0.4382090000    -1.9787430000    -2.4835070000
    8      H       0.5501530000    -2.8786780000    -3.1187980000
    9      H       1.3639060000    -1.3760150000    -2.5933810000
   10      H      -0.3937980000    -1.3757280000    -2.9035160000
   11      H      -0.2397400000    -4.7834370000     1.3541940000
   12      C       0.0000000000     0.0000000000     0.0000000000
   13      C       0.4318290000     0.7478840000     1.0994460000
   14      C       1.1237990000     1.9463730000     0.7767210000
   15      H       0.2474230000     0.4284970000     2.1360880000
   16      C       1.2341470000     2.1374570000    -0.6125460000
   17      S       0.4712210000     0.8161300000    -1.4868090000
   18      C       1.6676940000     2.8883800000     1.8146090000
   19      H       1.4548740000     2.5197680000     2.8366760000
   20      H       1.2220090000     3.9012100000     1.7262390000
   21      H       2.7676750000     3.0087880000     1.7262280000
   22      H       1.7087730000     2.9594930000    -1.1615750000
 ----------------------------------------------------------------

   10   -1179.6645022411      5.82e-07  Convergence criterion met
 Total energy in the final basis set =    -1179.6645022411
        RIMP2         total energy =     -1181.6509456043 a.u.

                    Orbital Energies (a.u.)
 --------------------------------------------------------------

 Alpha MOs
 -- Occupied --
-91.9839 -91.9813 -11.2792 -11.2782 -11.2683 -11.2679 -11.2526 -11.2486
-11.2453 -11.2418 -11.2293 -11.2274  -8.9841  -8.9815  -6.6649  -6.6643
 -6.6637  -6.6624  -6.6619  -6.6612  -1.1832  -1.1489  -1.0433  -1.0242
 -0.9987  -0.9518  -0.9134  -0.8954  -0.7981  -0.7652  -0.7209  -0.6955
 -0.6607  -0.6161  -0.5848  -0.5822  -0.5779  -0.5695  -0.5521  -0.5337
 -0.5233  -0.5215  -0.5123  -0.4957  -0.4829  -0.4651  -0.4481  -0.3711
 -0.3417  -0.3389  -0.2659

          Ground-State Mulliken Net Atomic Charges

     Atom                 Charge (a.u.)
  ----------------------------------------
      1 C                    -0.218310
      2 C                    -0.250678
      3 C                     0.048030
      4 H                     0.184364
      5 C                    -0.032212
      6 S                    -0.001899
      7 C                    -0.312606
      8 H                     0.113048
      9 H                     0.118542
     10 H                     0.111503
     11 H                     0.205353
     12 C                     0.025427
     13 C                    -0.235593
     14 C                     0.029164
     15 H                     0.178928
     16 C                    -0.242092
     17 S                     0.028751
     18 C                    -0.268562
     19 H                     0.102958
     20 H                     0.108560
     21 H                     0.107783
     22 H                     0.199541
  ----------------------------------------
  Sum of atomic charges =     0.000000

                    Cartesian Multipole Moments
 -----------------------------------------------------------------
    Charge (ESU x 10^10)
                -0.0000
    Dipole Moment (Debye)
         X       1.4046      Y       0.4783      Z      -0.1691
       Tot       1.4934
    Quadrupole Moments (Debye-Ang)
        XX     -89.6274     XY       4.3882     YY     -72.6549
        XZ      -0.7781     YZ       3.1216     ZZ     -80.0679

 Total job time:  566.54s(wall), 562.50s(cpu)
        *  Thank you very much for using Q-Chem.  Have a nice day.  *
