 Q-Chem 5.4, Q-Chem, Inc., Pleasanton, CA (2021)
 Q-Chem 5.4.0 for Intel X86 EM64T Linux

User input:
--------------------------------------------------------------
$molecule
0 1
C	0.763228	-3.866725	0.135301
C	-0.603311	-3.703963	-0.106073
C	-1.050423	-2.357056	-0.185286
H	-1.283188	-4.561092	-0.225783
C	0.000000	-1.440664	0.000000
S	1.521021	-2.286957	0.268187
C	-2.483507	-1.978743	-0.438209
H	-3.118798	-2.878678	-0.550153
H	-2.593381	-1.376015	-1.363906
H	-2.903516	-1.375728	0.393798
H	1.354194	-4.783437	0.239740
C	0.000000	0.000000	0.000000
C	0.661577	0.555087	1.099446
C	1.721724	1.444630	0.776721
H	0.379056	0.318032	2.136088
C	1.890772	1.586449	-0.612546
S	0.721935	0.605744	-1.486809
C	2.555004	2.143805	1.814609
H	2.228946	1.870211	2.836676
H	2.482605	3.247987	1.726239
H	3.629830	1.880735	1.726228
H	2.617927	2.196579	-1.161575
$end

$rem
JOBTYPE		SP
EXCHANGE	HF
CORRELATION	pRIMP2
BASIS		cc-pvtz
METHOD		rimp2
AUX_BASIS	rimp2-cc-pvtz
SOLVENT_METHOD	PCM
PURECART	11111
SYMMETRY	false
MEM_TOTAL	110000
SCF_CONVERGENCE = 6
THRESH=10
$end

$solvent
dielectric 4.90
$end
--------------------------------------------------------------

             Standard Nuclear Orientation (Angstroms)
    I     Atom           X                Y                Z
 ----------------------------------------------------------------
    1      C       0.7632280000    -3.8667250000     0.1353010000
    2      C      -0.6033110000    -3.7039630000    -0.1060730000
    3      C      -1.0504230000    -2.3570560000    -0.1852860000
    4      H      -1.2831880000    -4.5610920000    -0.2257830000
    5      C       0.0000000000    -1.4406640000     0.0000000000
    6      S       1.5210210000    -2.2869570000     0.2681870000
    7      C      -2.4835070000    -1.9787430000    -0.4382090000
    8      H      -3.1187980000    -2.8786780000    -0.5501530000
    9      H      -2.5933810000    -1.3760150000    -1.3639060000
   10      H      -2.9035160000    -1.3757280000     0.3937980000
   11      H       1.3541940000    -4.7834370000     0.2397400000
   12      C       0.0000000000     0.0000000000     0.0000000000
   13      C       0.6615770000     0.5550870000     1.0994460000
   14      C       1.7217240000     1.4446300000     0.7767210000
   15      H       0.3790560000     0.3180320000     2.1360880000
   16      C       1.8907720000     1.5864490000    -0.6125460000
   17      S       0.7219350000     0.6057440000    -1.4868090000
   18      C       2.5550040000     2.1438050000     1.8146090000
   19      H       2.2289460000     1.8702110000     2.8366760000
   20      H       2.4826050000     3.2479870000     1.7262390000
   21      H       3.6298300000     1.8807350000     1.7262280000
   22      H       2.6179270000     2.1965790000    -1.1615750000
 ----------------------------------------------------------------

   10   -1179.6385469597      6.44e-07  Convergence criterion met
 Total energy in the final basis set =    -1179.6385469597
        RIMP2         total energy =     -1181.6274112777 a.u.

                    Orbital Energies (a.u.)
 --------------------------------------------------------------

 Alpha MOs
 -- Occupied --
-91.9829 -91.9772 -11.2827 -11.2695 -11.2664 -11.2583 -11.2568 -11.2529
-11.2431 -11.2372 -11.2303 -11.2262  -8.9831  -8.9774  -6.6639  -6.6631
 -6.6627  -6.6583  -6.6577  -6.6571  -1.1858  -1.1465  -1.0435  -1.0186
 -0.9996  -0.9502  -0.9126  -0.8905  -0.7972  -0.7528  -0.7356  -0.6896
 -0.6578  -0.6200  -0.5846  -0.5798  -0.5697  -0.5688  -0.5493  -0.5341
 -0.5296  -0.5164  -0.5082  -0.4906  -0.4679  -0.4632  -0.4609  -0.3561
 -0.3310  -0.3179  -0.2958

          Ground-State Mulliken Net Atomic Charges

     Atom                 Charge (a.u.)
  ----------------------------------------
      1 C                    -0.218454
      2 C                    -0.251503
      3 C                     0.051050
      4 H                     0.180866
      5 C                    -0.053531
      6 S                     0.013512
      7 C                    -0.284635
      8 H                     0.106509
      9 H                     0.108555
     10 H                     0.108859
     11 H                     0.202667
     12 C                    -0.070617
     13 C                    -0.203693
     14 C                     0.022497
     15 H                     0.188155
     16 C                    -0.192403
     17 S                     0.038841
     18 C                    -0.266362
     19 H                     0.103323
     20 H                     0.108115
     21 H                     0.107161
     22 H                     0.201087
  ----------------------------------------
  Sum of atomic charges =     0.000000

                    Cartesian Multipole Moments
 -----------------------------------------------------------------
    Charge (ESU x 10^10)
                -0.0000
    Dipole Moment (Debye)
         X       0.7670      Y       0.6963      Z       1.3019
       Tot       1.6638
    Quadrupole Moments (Debye-Ang)
        XX     -79.5546     XY       8.3085     YY     -76.8083
        XZ       1.5915     YZ       1.0420     ZZ     -85.8824

 Total job time:  564.89s(wall), 561.74s(cpu)
        *  Thank you very much for using Q-Chem.  Have a nice day.  *
