 Q-Chem 5.4, Q-Chem, Inc., Pleasanton, CA (2021)
 Q-Chem 5.4.0 for Intel X86 EM64T Linux

User input:
--------------------------------------------------------------
$molecule
0 1
C	-0.671636	-3.866725	0.386946
C	0.530345	-3.703963	-0.306544
C	0.923770	-2.357056	-0.533261
H	1.128109	-4.561092	-0.651857
C	-0.000000	-1.440664	-0.000000
S	-1.337557	-2.286957	0.772250
C	2.184153	-1.978743	-1.260680
H	2.742769	-2.878678	-1.583283
H	2.863347	-1.376015	-0.622180
H	1.971094	-1.375728	-2.168011
H	-1.191474	-4.783437	0.686807
C	0.000000	0.000000	0.000000
C	0.149995	0.850475	1.099446
C	0.390327	2.213354	0.776721
H	0.085947	0.487279	2.136088
C	0.428665	2.430655	-0.612546
S	0.163670	0.928078	-1.486809
C	0.579235	3.284574	1.814609
H	0.505323	2.865404	2.836676
H	-0.185980	4.083890	1.726239
H	1.571698	3.773937	1.726228
H	0.593515	3.365448	-1.161575
$end

$rem
JOBTYPE		SP
EXCHANGE	HF
CORRELATION	pRIMP2
BASIS		cc-pvtz
METHOD		rimp2
AUX_BASIS	rimp2-cc-pvtz
SOLVENT_METHOD	PCM
PURECART	11111
SYMMETRY	false
MEM_TOTAL	110000
SCF_CONVERGENCE = 6
THRESH=10
$end

$solvent
dielectric 4.90
$end
--------------------------------------------------------------

             Standard Nuclear Orientation (Angstroms)
    I     Atom           X                Y                Z
 ----------------------------------------------------------------
    1      C      -0.6716360000    -3.8667250000     0.3869460000
    2      C       0.5303450000    -3.7039630000    -0.3065440000
    3      C       0.9237700000    -2.3570560000    -0.5332610000
    4      H       1.1281090000    -4.5610920000    -0.6518570000
    5      C       0.0000000000    -1.4406640000     0.0000000000
    6      S      -1.3375570000    -2.2869570000     0.7722500000
    7      C       2.1841530000    -1.9787430000    -1.2606800000
    8      H       2.7427690000    -2.8786780000    -1.5832830000
    9      H       2.8633470000    -1.3760150000    -0.6221800000
   10      H       1.9710940000    -1.3757280000    -2.1680110000
   11      H      -1.1914740000    -4.7834370000     0.6868070000
   12      C       0.0000000000     0.0000000000     0.0000000000
   13      C       0.1499950000     0.8504750000     1.0994460000
   14      C       0.3903270000     2.2133540000     0.7767210000
   15      H       0.0859470000     0.4872790000     2.1360880000
   16      C       0.4286650000     2.4306550000    -0.6125460000
   17      S       0.1636700000     0.9280780000    -1.4868090000
   18      C       0.5792350000     3.2845740000     1.8146090000
   19      H       0.5053230000     2.8654040000     2.8366760000
   20      H      -0.1859800000     4.0838900000     1.7262390000
   21      H       1.5716980000     3.7739370000     1.7262280000
   22      H       0.5935150000     3.3654480000    -1.1615750000
 ----------------------------------------------------------------

   10   -1179.6839377341      5.01e-07  Convergence criterion met
 Total energy in the final basis set =    -1179.6839377341
        RIMP2         total energy =     -1181.6631346894 a.u.

                    Orbital Energies (a.u.)
 --------------------------------------------------------------

 Alpha MOs
 -- Occupied --
-91.9853 -91.9846 -11.2796 -11.2746 -11.2714 -11.2652 -11.2530 -11.2512
-11.2429 -11.2422 -11.2291 -11.2283  -8.9848  -8.9842  -6.6657  -6.6652
 -6.6651  -6.6646  -6.6645  -6.6639  -1.1792  -1.1496  -1.0407  -1.0226
 -0.9982  -0.9535  -0.9138  -0.8925  -0.8001  -0.7583  -0.7266  -0.6950
 -0.6621  -0.6163  -0.5824  -0.5781  -0.5740  -0.5697  -0.5519  -0.5325
 -0.5277  -0.5196  -0.5094  -0.4934  -0.4864  -0.4661  -0.4588  -0.3480
 -0.3426  -0.3332  -0.2883

          Ground-State Mulliken Net Atomic Charges

     Atom                 Charge (a.u.)
  ----------------------------------------
      1 C                    -0.217074
      2 C                    -0.248550
      3 C                     0.039784
      4 H                     0.184351
      5 C                    -0.028069
      6 S                     0.024665
      7 C                    -0.287068
      8 H                     0.109195
      9 H                     0.113309
     10 H                     0.111867
     11 H                     0.204433
     12 C                    -0.015277
     13 C                    -0.233760
     14 C                     0.019769
     15 H                     0.187999
     16 C                    -0.235978
     17 S                     0.024237
     18 C                    -0.270835
     19 H                     0.102821
     20 H                     0.108277
     21 H                     0.107943
     22 H                     0.197961
  ----------------------------------------
  Sum of atomic charges =     0.000000

                    Cartesian Multipole Moments
 -----------------------------------------------------------------
    Charge (ESU x 10^10)
                -0.0000
    Dipole Moment (Debye)
         X       1.6510      Y       0.3144      Z       0.6632
       Tot       1.8068
    Quadrupole Moments (Debye-Ang)
        XX     -87.5425     XY       0.0522     YY     -69.3059
        XZ      -2.7076     YZ       2.0846     ZZ     -84.9913

 Total job time:  562.09s(wall), 559.28s(cpu)
        *  Thank you very much for using Q-Chem.  Have a nice day.  *
