 Q-Chem 5.4, Q-Chem, Inc., Pleasanton, CA (2021)
 Q-Chem 5.4.0 for Intel X86 EM64T Linux

User input:
--------------------------------------------------------------
$molecule
0 1
C	-0.763228	-3.866725	-0.135301
C	0.603311	-3.703963	0.106073
C	1.050423	-2.357056	0.185286
H	1.283188	-4.561092	0.225783
C	0.000000	-1.440664	0.000000
S	-1.521021	-2.286957	-0.268187
C	2.483507	-1.978743	0.438209
H	3.118798	-2.878678	0.550153
H	2.593381	-1.376015	1.363906
H	2.903516	-1.375728	-0.393798
H	-1.354194	-4.783437	-0.239740
C	0.000000	0.000000	0.000000
C	0.661577	0.555087	1.099446
C	1.721724	1.444630	0.776721
H	0.379056	0.318032	2.136088
C	1.890772	1.586449	-0.612546
S	0.721935	0.605744	-1.486809
C	2.555004	2.143805	1.814609
H	2.228946	1.870211	2.836676
H	2.482605	3.247987	1.726239
H	3.629830	1.880735	1.726228
H	2.617927	2.196579	-1.161575
$end

$rem
JOBTYPE		SP
EXCHANGE	HF
CORRELATION	pRIMP2
BASIS		cc-pvtz
METHOD		rimp2
AUX_BASIS	rimp2-cc-pvtz
SOLVENT_METHOD	PCM
PURECART	11111
SYMMETRY	false
MEM_TOTAL	110000
SCF_CONVERGENCE = 6
THRESH=10
$end

$solvent
dielectric 4.90
$end
--------------------------------------------------------------

             Standard Nuclear Orientation (Angstroms)
    I     Atom           X                Y                Z
 ----------------------------------------------------------------
    1      C      -0.7632280000    -3.8667250000    -0.1353010000
    2      C       0.6033110000    -3.7039630000     0.1060730000
    3      C       1.0504230000    -2.3570560000     0.1852860000
    4      H       1.2831880000    -4.5610920000     0.2257830000
    5      C       0.0000000000    -1.4406640000     0.0000000000
    6      S      -1.5210210000    -2.2869570000    -0.2681870000
    7      C       2.4835070000    -1.9787430000     0.4382090000
    8      H       3.1187980000    -2.8786780000     0.5501530000
    9      H       2.5933810000    -1.3760150000     1.3639060000
   10      H       2.9035160000    -1.3757280000    -0.3937980000
   11      H      -1.3541940000    -4.7834370000    -0.2397400000
   12      C       0.0000000000     0.0000000000     0.0000000000
   13      C       0.6615770000     0.5550870000     1.0994460000
   14      C       1.7217240000     1.4446300000     0.7767210000
   15      H       0.3790560000     0.3180320000     2.1360880000
   16      C       1.8907720000     1.5864490000    -0.6125460000
   17      S       0.7219350000     0.6057440000    -1.4868090000
   18      C       2.5550040000     2.1438050000     1.8146090000
   19      H       2.2289460000     1.8702110000     2.8366760000
   20      H       2.4826050000     3.2479870000     1.7262390000
   21      H       3.6298300000     1.8807350000     1.7262280000
   22      H       2.6179270000     2.1965790000    -1.1615750000
 ----------------------------------------------------------------

   10   -1179.6376606359      9.54e-07  Convergence criterion met
 Total energy in the final basis set =    -1179.6376606359
        RIMP2         total energy =     -1181.6301729266 a.u.

                    Orbital Energies (a.u.)
 --------------------------------------------------------------

 Alpha MOs
 -- Occupied --
-91.9838 -91.9756 -11.2823 -11.2724 -11.2644 -11.2588 -11.2576 -11.2523
-11.2451 -11.2382 -11.2311 -11.2260  -8.9839  -8.9757  -6.6647  -6.6639
 -6.6635  -6.6566  -6.6560  -6.6554  -1.1855  -1.1465  -1.0437  -1.0185
 -0.9991  -0.9528  -0.9129  -0.8900  -0.7957  -0.7502  -0.7386  -0.6953
 -0.6566  -0.6188  -0.5847  -0.5814  -0.5719  -0.5679  -0.5494  -0.5339
 -0.5256  -0.5233  -0.5121  -0.4881  -0.4700  -0.4647  -0.4505  -0.3489
 -0.3375  -0.3196  -0.2956

          Ground-State Mulliken Net Atomic Charges

     Atom                 Charge (a.u.)
  ----------------------------------------
      1 C                    -0.220046
      2 C                    -0.256686
      3 C                     0.054248
      4 H                     0.182721
      5 C                    -0.009669
      6 S                     0.004940
      7 C                    -0.310546
      8 H                     0.117934
      9 H                     0.111374
     10 H                     0.114506
     11 H                     0.200544
     12 C                    -0.106801
     13 C                    -0.198056
     14 C                     0.034518
     15 H                     0.192970
     16 C                    -0.206997
     17 S                     0.039471
     18 C                    -0.269405
     19 H                     0.104090
     20 H                     0.113062
     21 H                     0.106260
     22 H                     0.201570
  ----------------------------------------
  Sum of atomic charges =     0.000000

                    Cartesian Multipole Moments
 -----------------------------------------------------------------
    Charge (ESU x 10^10)
                -0.0000
    Dipole Moment (Debye)
         X       3.7760      Y       0.7982      Z       1.8577
       Tot       4.2833
    Quadrupole Moments (Debye-Ang)
        XX     -79.7705     XY       3.6727     YY     -77.3698
        XZ       1.5454     YZ       0.2081     ZZ     -85.9518

 Total job time:  607.50s(wall), 603.47s(cpu)
        *  Thank you very much for using Q-Chem.  Have a nice day.  *
