 Q-Chem 5.4, Q-Chem, Inc., Pleasanton, CA (2021)
 Q-Chem 5.4.0 for Intel X86 EM64T Linux

User input:
--------------------------------------------------------------
$molecule
0 1
C	-0.775127	-3.866725	-0.000713
C	0.612565	-3.703963	-0.000302
C	1.066639	-2.357056	0.000067
H	1.302900	-4.561092	-0.000470
C	-0.000000	-1.440664	-0.000000
S	-1.544483	-2.286957	0.000009
C	2.521872	-1.978743	0.000295
H	3.166949	-2.878678	0.000221
H	2.790821	-1.376015	0.892850
H	2.791023	-1.375728	-0.892005
H	-1.375251	-4.783437	-0.000945
C	0.000000	0.000000	0.000000
C	0.075300	0.860311	1.099446
C	0.195935	2.238951	0.776721
H	0.043151	0.492916	2.136088
C	0.215188	2.458766	-0.612546
S	0.082160	0.938811	-1.486809
C	0.290762	3.322559	1.814609
H	0.253664	2.898542	2.836676
H	-0.541206	4.052140	1.726239
H	1.236797	3.896558	1.726228
H	0.297938	3.404370	-1.161575
$end

$rem
JOBTYPE		SP
EXCHANGE	HF
CORRELATION	pRIMP2
BASIS		cc-pvtz
METHOD		rimp2
AUX_BASIS	rimp2-cc-pvtz
SOLVENT_METHOD	PCM
PURECART	11111
SYMMETRY	false
MEM_TOTAL	110000
SCF_CONVERGENCE = 6
THRESH=10
$end

$solvent
dielectric 4.90
$end
--------------------------------------------------------------

             Standard Nuclear Orientation (Angstroms)
    I     Atom           X                Y                Z
 ----------------------------------------------------------------
    1      C      -0.7751270000    -3.8667250000    -0.0007130000
    2      C       0.6125650000    -3.7039630000    -0.0003020000
    3      C       1.0666390000    -2.3570560000     0.0000670000
    4      H       1.3029000000    -4.5610920000    -0.0004700000
    5      C       0.0000000000    -1.4406640000     0.0000000000
    6      S      -1.5444830000    -2.2869570000     0.0000090000
    7      C       2.5218720000    -1.9787430000     0.0002950000
    8      H       3.1669490000    -2.8786780000     0.0002210000
    9      H       2.7908210000    -1.3760150000     0.8928500000
   10      H       2.7910230000    -1.3757280000    -0.8920050000
   11      H      -1.3752510000    -4.7834370000    -0.0009450000
   12      C       0.0000000000     0.0000000000     0.0000000000
   13      C       0.0753000000     0.8603110000     1.0994460000
   14      C       0.1959350000     2.2389510000     0.7767210000
   15      H       0.0431510000     0.4929160000     2.1360880000
   16      C       0.2151880000     2.4587660000    -0.6125460000
   17      S       0.0821600000     0.9388110000    -1.4868090000
   18      C       0.2907620000     3.3225590000     1.8146090000
   19      H       0.2536640000     2.8985420000     2.8366760000
   20      H      -0.5412060000     4.0521400000     1.7262390000
   21      H       1.2367970000     3.8965580000     1.7262280000
   22      H       0.2979380000     3.4043700000    -1.1615750000
 ----------------------------------------------------------------

   10   -1179.6850541978      5.07e-07  Convergence criterion met
 Total energy in the final basis set =    -1179.6850541978
        RIMP2         total energy =     -1181.6630989916 a.u.

                    Orbital Energies (a.u.)
 --------------------------------------------------------------

 Alpha MOs
 -- Occupied --
-91.9854 -91.9842 -11.2784 -11.2727 -11.2724 -11.2650 -11.2544 -11.2508
-11.2427 -11.2418 -11.2293 -11.2290  -8.9849  -8.9838  -6.6657  -6.6652
 -6.6647  -6.6646  -6.6641  -6.6635  -1.1783  -1.1495  -1.0399  -1.0229
 -0.9972  -0.9541  -0.9135  -0.8922  -0.8006  -0.7539  -0.7305  -0.6952
 -0.6623  -0.6162  -0.5822  -0.5792  -0.5713  -0.5691  -0.5520  -0.5310
 -0.5298  -0.5201  -0.5081  -0.4918  -0.4877  -0.4640  -0.4627  -0.3456
 -0.3387  -0.3130  -0.3117

          Ground-State Mulliken Net Atomic Charges

     Atom                 Charge (a.u.)
  ----------------------------------------
      1 C                    -0.214911
      2 C                    -0.247349
      3 C                     0.047549
      4 H                     0.184306
      5 C                    -0.041602
      6 S                     0.027086
      7 C                    -0.280093
      8 H                     0.107920
      9 H                     0.109951
     10 H                     0.110435
     11 H                     0.204215
     12 C                    -0.020513
     13 C                    -0.226830
     14 C                     0.017844
     15 H                     0.186425
     16 C                    -0.237785
     17 S                     0.028027
     18 C                    -0.271325
     19 H                     0.102707
     20 H                     0.108358
     21 H                     0.107811
     22 H                     0.197773
  ----------------------------------------
  Sum of atomic charges =     0.000000

                    Cartesian Multipole Moments
 -----------------------------------------------------------------
    Charge (ESU x 10^10)
                -0.0000
    Dipole Moment (Debye)
         X       1.6837      Y       0.2581      Z       1.4467
       Tot       2.2348
    Quadrupole Moments (Debye-Ang)
        XX     -86.0788     XY      -1.2125     YY     -68.8254
        XZ       0.0754     YZ       1.0299     ZZ     -86.7276

 Total job time:  564.12s(wall), 559.80s(cpu)
        *  Thank you very much for using Q-Chem.  Have a nice day.  *
