 Q-Chem 5.4, Q-Chem, Inc., Pleasanton, CA (2021)
 Q-Chem 5.4.0 for Intel X86 EM64T Linux

User input:
--------------------------------------------------------------
$molecule
0 1
C	0.671636	-3.866725	-0.386946
C	-0.530345	-3.703963	0.306544
C	-0.923770	-2.357056	0.533261
H	-1.128109	-4.561092	0.651857
C	-0.000000	-1.440664	-0.000000
S	1.337557	-2.286957	-0.772250
C	-2.184153	-1.978743	1.260680
H	-2.742769	-2.878678	1.583283
H	-2.863347	-1.376015	0.622180
H	-1.971094	-1.375728	2.168011
H	1.191474	-4.783437	-0.686807
C	0.000000	0.000000	0.000000
C	0.365003	0.782674	1.099446
C	0.949885	2.036912	0.776721
H	0.209135	0.448431	2.136088
C	1.043159	2.236886	-0.612546
S	0.398297	0.854094	-1.486809
C	1.409609	3.022738	1.814609
H	1.229726	2.636980	2.836676
H	0.877346	3.992870	1.726239
H	2.494910	3.238558	1.726228
H	1.444334	3.097160	-1.161575
$end

$rem
JOBTYPE		SP
EXCHANGE	HF
CORRELATION	pRIMP2
BASIS		cc-pvtz
METHOD		rimp2
AUX_BASIS	rimp2-cc-pvtz
SOLVENT_METHOD	PCM
PURECART	11111
SYMMETRY	false
MEM_TOTAL	110000
SCF_CONVERGENCE = 6
THRESH=10
$end

$solvent
dielectric 4.90
$end
--------------------------------------------------------------

             Standard Nuclear Orientation (Angstroms)
    I     Atom           X                Y                Z
 ----------------------------------------------------------------
    1      C       0.6716360000    -3.8667250000    -0.3869460000
    2      C      -0.5303450000    -3.7039630000     0.3065440000
    3      C      -0.9237700000    -2.3570560000     0.5332610000
    4      H      -1.1281090000    -4.5610920000     0.6518570000
    5      C       0.0000000000    -1.4406640000     0.0000000000
    6      S       1.3375570000    -2.2869570000    -0.7722500000
    7      C      -2.1841530000    -1.9787430000     1.2606800000
    8      H      -2.7427690000    -2.8786780000     1.5832830000
    9      H      -2.8633470000    -1.3760150000     0.6221800000
   10      H      -1.9710940000    -1.3757280000     2.1680110000
   11      H       1.1914740000    -4.7834370000    -0.6868070000
   12      C       0.0000000000     0.0000000000     0.0000000000
   13      C       0.3650030000     0.7826740000     1.0994460000
   14      C       0.9498850000     2.0369120000     0.7767210000
   15      H       0.2091350000     0.4484310000     2.1360880000
   16      C       1.0431590000     2.2368860000    -0.6125460000
   17      S       0.3982970000     0.8540940000    -1.4868090000
   18      C       1.4096090000     3.0227380000     1.8146090000
   19      H       1.2297260000     2.6369800000     2.8366760000
   20      H       0.8773460000     3.9928700000     1.7262390000
   21      H       2.4949100000     3.2385580000     1.7262280000
   22      H       1.4443340000     3.0971600000    -1.1615750000
 ----------------------------------------------------------------

   10   -1179.6741510458      5.07e-07  Convergence criterion met
 Total energy in the final basis set =    -1179.6741510458
        RIMP2         total energy =     -1181.6552003019 a.u.

                    Orbital Energies (a.u.)
 --------------------------------------------------------------

 Alpha MOs
 -- Occupied --
-91.9858 -91.9834 -11.2762 -11.2739 -11.2690 -11.2687 -11.2520 -11.2491
-11.2459 -11.2407 -11.2295 -11.2287  -8.9855  -8.9831  -6.6663  -6.6658
 -6.6652  -6.6639  -6.6634  -6.6627  -1.1805  -1.1490  -1.0414  -1.0226
 -0.9965  -0.9550  -0.9118  -0.8927  -0.8011  -0.7515  -0.7326  -0.6951
 -0.6607  -0.6161  -0.5844  -0.5794  -0.5696  -0.5675  -0.5517  -0.5335
 -0.5305  -0.5194  -0.5082  -0.4909  -0.4817  -0.4696  -0.4593  -0.3539
 -0.3388  -0.3308  -0.2864

          Ground-State Mulliken Net Atomic Charges

     Atom                 Charge (a.u.)
  ----------------------------------------
      1 C                    -0.216063
      2 C                    -0.249998
      3 C                     0.045078
      4 H                     0.182727
      5 C                    -0.044680
      6 S                     0.026597
      7 C                    -0.285438
      8 H                     0.107345
      9 H                     0.110491
     10 H                     0.107230
     11 H                     0.203937
     12 C                    -0.023092
     13 C                    -0.207748
     14 C                     0.014655
     15 H                     0.189311
     16 C                    -0.224629
     17 S                     0.017941
     18 C                    -0.270639
     19 H                     0.102528
     20 H                     0.107988
     21 H                     0.108041
     22 H                     0.198421
  ----------------------------------------
  Sum of atomic charges =     0.000000

                    Cartesian Multipole Moments
 -----------------------------------------------------------------
    Charge (ESU x 10^10)
                -0.0000
    Dipole Moment (Debye)
         X      -0.3407      Y       0.5234      Z       2.2131
       Tot       2.2995
    Quadrupole Moments (Debye-Ang)
        XX     -85.9020     XY       6.1118     YY     -71.3855
        XZ      -2.3425     YZ      -0.2132     ZZ     -84.9140

 Total job time:  587.96s(wall), 584.68s(cpu)
        *  Thank you very much for using Q-Chem.  Have a nice day.  *
