 Q-Chem 5.4, Q-Chem, Inc., Pleasanton, CA (2021)
 Q-Chem 5.4.0 for Intel X86 EM64T Linux

User input:
--------------------------------------------------------------
$molecule
0 1
C	0.135301	-3.866725	-0.763228
C	-0.106073	-3.703963	0.603311
C	-0.185286	-2.357056	1.050423
H	-0.225783	-4.561092	1.283188
C	0.000000	-1.440664	0.000000
S	0.268187	-2.286957	-1.521021
C	-0.438209	-1.978743	2.483507
H	-0.550153	-2.878678	3.118798
H	-1.363906	-1.376015	2.593381
H	0.393798	-1.375728	2.903516
H	0.239740	-4.783437	-1.354194
C	0.000000	0.000000	0.000000
C	0.223548	0.834165	1.099446
C	0.581748	2.170912	0.776721
H	0.128089	0.477934	2.136088
C	0.638880	2.384045	-0.612546
S	0.243934	0.910282	-1.486809
C	0.863301	3.221592	1.814609
H	0.753137	2.810458	2.836676
H	0.170663	4.084559	1.726239
H	1.894637	3.622593	1.726228
H	0.884575	3.300913	-1.161575
$end

$rem
JOBTYPE		SP
EXCHANGE	HF
CORRELATION	pRIMP2
BASIS		cc-pvtz
METHOD		rimp2
AUX_BASIS	rimp2-cc-pvtz
SOLVENT_METHOD	PCM
PURECART	11111
SYMMETRY	false
MEM_TOTAL	110000
SCF_CONVERGENCE = 6
THRESH=10
$end

$solvent
dielectric 4.90
$end
--------------------------------------------------------------

             Standard Nuclear Orientation (Angstroms)
    I     Atom           X                Y                Z
 ----------------------------------------------------------------
    1      C       0.1353010000    -3.8667250000    -0.7632280000
    2      C      -0.1060730000    -3.7039630000     0.6033110000
    3      C      -0.1852860000    -2.3570560000     1.0504230000
    4      H      -0.2257830000    -4.5610920000     1.2831880000
    5      C       0.0000000000    -1.4406640000     0.0000000000
    6      S       0.2681870000    -2.2869570000    -1.5210210000
    7      C      -0.4382090000    -1.9787430000     2.4835070000
    8      H      -0.5501530000    -2.8786780000     3.1187980000
    9      H      -1.3639060000    -1.3760150000     2.5933810000
   10      H       0.3937980000    -1.3757280000     2.9035160000
   11      H       0.2397400000    -4.7834370000    -1.3541940000
   12      C       0.0000000000     0.0000000000     0.0000000000
   13      C       0.2235480000     0.8341650000     1.0994460000
   14      C       0.5817480000     2.1709120000     0.7767210000
   15      H       0.1280890000     0.4779340000     2.1360880000
   16      C       0.6388800000     2.3840450000    -0.6125460000
   17      S       0.2439340000     0.9102820000    -1.4868090000
   18      C       0.8633010000     3.2215920000     1.8146090000
   19      H       0.7531370000     2.8104580000     2.8366760000
   20      H       0.1706630000     4.0845590000     1.7262390000
   21      H       1.8946370000     3.6225930000     1.7262280000
   22      H       0.8845750000     3.3009130000    -1.1615750000
 ----------------------------------------------------------------

   10   -1179.6808912567      4.87e-07  Convergence criterion met
 Total energy in the final basis set =    -1179.6808912567
        RIMP2         total energy =     -1181.6621578075 a.u.

                    Orbital Energies (a.u.)
 --------------------------------------------------------------

 Alpha MOs
 -- Occupied --
-91.9859 -91.9846 -11.2828 -11.2787 -11.2713 -11.2656 -11.2526 -11.2524
-11.2436 -11.2414 -11.2315 -11.2296  -8.9857  -8.9846  -6.6667  -6.6661
 -6.6655  -6.6655  -6.6650  -6.6643  -1.1821  -1.1503  -1.0425  -1.0275
 -0.9959  -0.9566  -0.9143  -0.8948  -0.8034  -0.7568  -0.7274  -0.7009
 -0.6619  -0.6141  -0.5911  -0.5823  -0.5703  -0.5637  -0.5523  -0.5402
 -0.5301  -0.5234  -0.5047  -0.4910  -0.4869  -0.4780  -0.4502  -0.3708
 -0.3478  -0.3370  -0.2683

          Ground-State Mulliken Net Atomic Charges

     Atom                 Charge (a.u.)
  ----------------------------------------
      1 C                    -0.217724
      2 C                    -0.250594
      3 C                     0.063648
      4 H                     0.184214
      5 C                    -0.041869
      6 S                     0.007792
      7 C                    -0.316655
      8 H                     0.118440
      9 H                     0.115385
     10 H                     0.105779
     11 H                     0.207171
     12 C                     0.032581
     13 C                    -0.236129
     14 C                     0.022651
     15 H                     0.193644
     16 C                    -0.243517
     17 S                     0.006576
     18 C                    -0.271018
     19 H                     0.101389
     20 H                     0.108738
     21 H                     0.108933
     22 H                     0.200567
  ----------------------------------------
  Sum of atomic charges =     0.000000

                    Cartesian Multipole Moments
 -----------------------------------------------------------------
    Charge (ESU x 10^10)
                -0.0000
    Dipole Moment (Debye)
         X       0.2563      Y       0.2600      Z       2.9138
       Tot       2.9366
    Quadrupole Moments (Debye-Ang)
        XX     -91.8077     XY       3.1743     YY     -69.2701
        XZ      -0.8784     YZ      -1.2086     ZZ     -80.2516

 Total job time:  564.61s(wall), 560.16s(cpu)
        *  Thank you very much for using Q-Chem.  Have a nice day.  *
