 Q-Chem 5.4, Q-Chem, Inc., Pleasanton, CA (2021)
 Q-Chem 5.4.0 for Intel X86 EM64T Linux

User input:
--------------------------------------------------------------
$molecule
0 1
C	-0.728625	-3.866725	0.264439
C	0.575519	-3.703963	-0.209794
C	1.002336	-2.357056	-0.364749
H	1.224165	-4.561092	-0.446060
C	0.000000	-1.440664	0.000000
S	-1.451336	-2.286957	0.528253
C	2.369885	-1.978743	-0.862253
H	2.976034	-2.878678	-1.082953
H	2.927887	-1.376015	-0.115513
H	2.317620	-1.375728	-1.792797
H	-1.292636	-4.783437	0.469476
C	0.000000	0.000000	0.000000
C	0.223548	0.834165	1.099446
C	0.581748	2.170912	0.776721
H	0.128089	0.477934	2.136088
C	0.638880	2.384045	-0.612546
S	0.243934	0.910282	-1.486809
C	0.863301	3.221592	1.814609
H	0.753137	2.810458	2.836676
H	0.170663	4.084559	1.726239
H	1.894637	3.622593	1.726228
H	0.884575	3.300913	-1.161575
$end

$rem
JOBTYPE		SP
EXCHANGE	HF
CORRELATION	pRIMP2
BASIS		cc-pvtz
METHOD		rimp2
AUX_BASIS	rimp2-cc-pvtz
SOLVENT_METHOD	PCM
PURECART	11111
SYMMETRY	false
MEM_TOTAL	110000
SCF_CONVERGENCE = 6
THRESH=10
$end

$solvent
dielectric 4.90
$end
--------------------------------------------------------------

             Standard Nuclear Orientation (Angstroms)
    I     Atom           X                Y                Z
 ----------------------------------------------------------------
    1      C      -0.7286250000    -3.8667250000     0.2644390000
    2      C       0.5755190000    -3.7039630000    -0.2097940000
    3      C       1.0023360000    -2.3570560000    -0.3647490000
    4      H       1.2241650000    -4.5610920000    -0.4460600000
    5      C       0.0000000000    -1.4406640000     0.0000000000
    6      S      -1.4513360000    -2.2869570000     0.5282530000
    7      C       2.3698850000    -1.9787430000    -0.8622530000
    8      H       2.9760340000    -2.8786780000    -1.0829530000
    9      H       2.9278870000    -1.3760150000    -0.1155130000
   10      H       2.3176200000    -1.3757280000    -1.7927970000
   11      H      -1.2926360000    -4.7834370000     0.4694760000
   12      C       0.0000000000     0.0000000000     0.0000000000
   13      C       0.2235480000     0.8341650000     1.0994460000
   14      C       0.5817480000     2.1709120000     0.7767210000
   15      H       0.1280890000     0.4779340000     2.1360880000
   16      C       0.6388800000     2.3840450000    -0.6125460000
   17      S       0.2439340000     0.9102820000    -1.4868090000
   18      C       0.8633010000     3.2215920000     1.8146090000
   19      H       0.7531370000     2.8104580000     2.8366760000
   20      H       0.1706630000     4.0845590000     1.7262390000
   21      H       1.8946370000     3.6225930000     1.7262280000
   22      H       0.8845750000     3.3009130000    -1.1615750000
 ----------------------------------------------------------------

   10   -1179.6812415637      5.07e-07  Convergence criterion met
 Total energy in the final basis set =    -1179.6812415637
        RIMP2         total energy =     -1181.6610192546 a.u.

                    Orbital Energies (a.u.)
 --------------------------------------------------------------

 Alpha MOs
 -- Occupied --
-91.9853 -91.9837 -11.2778 -11.2738 -11.2710 -11.2664 -11.2528 -11.2513
-11.2441 -11.2417 -11.2292 -11.2282  -8.9848  -8.9834  -6.6657  -6.6652
 -6.6646  -6.6643  -6.6637  -6.6631  -1.1790  -1.1494  -1.0406  -1.0220
 -0.9979  -0.9538  -0.9134  -0.8922  -0.7998  -0.7564  -0.7286  -0.6952
 -0.6616  -0.6164  -0.5819  -0.5786  -0.5731  -0.5696  -0.5517  -0.5317
 -0.5284  -0.5198  -0.5097  -0.4925  -0.4850  -0.4654  -0.4596  -0.3458
 -0.3420  -0.3270  -0.2952

          Ground-State Mulliken Net Atomic Charges

     Atom                 Charge (a.u.)
  ----------------------------------------
      1 C                    -0.217231
      2 C                    -0.248925
      3 C                     0.051508
      4 H                     0.184133
      5 C                    -0.029689
      6 S                     0.025815
      7 C                    -0.282891
      8 H                     0.108682
      9 H                     0.111628
     10 H                     0.111263
     11 H                     0.203976
     12 C                    -0.035492
     13 C                    -0.229954
     14 C                     0.021337
     15 H                     0.187166
     16 C                    -0.234190
     17 S                     0.026765
     18 C                    -0.270737
     19 H                     0.102861
     20 H                     0.108302
     21 H                     0.107781
     22 H                     0.197894
  ----------------------------------------
  Sum of atomic charges =     0.000000

                    Cartesian Multipole Moments
 -----------------------------------------------------------------
    Charge (ESU x 10^10)
                -0.0000
    Dipole Moment (Debye)
         X       1.9478      Y       0.3754      Z       0.9204
       Tot       2.1868
    Quadrupole Moments (Debye-Ang)
        XX     -86.3056     XY       0.7407     YY     -69.8172
        XZ      -1.8727     YZ       1.7402     ZZ     -85.8612

 Total job time:  557.23s(wall), 553.84s(cpu)
        *  Thank you very much for using Q-Chem.  Have a nice day.  *
