 Q-Chem 5.4, Q-Chem, Inc., Pleasanton, CA (2021)
 Q-Chem 5.4.0 for Intel X86 EM64T Linux

User input:
--------------------------------------------------------------
$molecule
0 1
C	0.264439	-3.866725	0.728625
C	-0.209794	-3.703963	-0.575519
C	-0.364749	-2.357056	-1.002336
H	-0.446060	-4.561092	-1.224165
C	0.000000	-1.440664	0.000000
S	0.528253	-2.286957	1.451336
C	-0.862253	-1.978743	-2.369885
H	-1.082953	-2.878678	-2.976034
H	-0.115513	-1.376015	-2.927887
H	-1.792797	-1.375728	-2.317620
H	0.469476	-4.783437	1.292636
C	0.000000	0.000000	0.000000
C	0.661577	0.555087	1.099446
C	1.721724	1.444630	0.776721
H	0.379056	0.318032	2.136088
C	1.890772	1.586449	-0.612546
S	0.721935	0.605744	-1.486809
C	2.555004	2.143805	1.814609
H	2.228946	1.870211	2.836676
H	2.482605	3.247987	1.726239
H	3.629830	1.880735	1.726228
H	2.617927	2.196579	-1.161575
$end

$rem
JOBTYPE		SP
EXCHANGE	HF
CORRELATION	pRIMP2
BASIS		cc-pvtz
METHOD		rimp2
AUX_BASIS	rimp2-cc-pvtz
SOLVENT_METHOD	PCM
PURECART	11111
SYMMETRY	false
MEM_TOTAL	110000
SCF_CONVERGENCE = 6
THRESH=10
$end

$solvent
dielectric 4.90
$end
--------------------------------------------------------------

             Standard Nuclear Orientation (Angstroms)
    I     Atom           X                Y                Z
 ----------------------------------------------------------------
    1      C       0.2644390000    -3.8667250000     0.7286250000
    2      C      -0.2097940000    -3.7039630000    -0.5755190000
    3      C      -0.3647490000    -2.3570560000    -1.0023360000
    4      H      -0.4460600000    -4.5610920000    -1.2241650000
    5      C       0.0000000000    -1.4406640000     0.0000000000
    6      S       0.5282530000    -2.2869570000     1.4513360000
    7      C      -0.8622530000    -1.9787430000    -2.3698850000
    8      H      -1.0829530000    -2.8786780000    -2.9760340000
    9      H      -0.1155130000    -1.3760150000    -2.9278870000
   10      H      -1.7927970000    -1.3757280000    -2.3176200000
   11      H       0.4694760000    -4.7834370000     1.2926360000
   12      C       0.0000000000     0.0000000000     0.0000000000
   13      C       0.6615770000     0.5550870000     1.0994460000
   14      C       1.7217240000     1.4446300000     0.7767210000
   15      H       0.3790560000     0.3180320000     2.1360880000
   16      C       1.8907720000     1.5864490000    -0.6125460000
   17      S       0.7219350000     0.6057440000    -1.4868090000
   18      C       2.5550040000     2.1438050000     1.8146090000
   19      H       2.2289460000     1.8702110000     2.8366760000
   20      H       2.4826050000     3.2479870000     1.7262390000
   21      H       3.6298300000     1.8807350000     1.7262280000
   22      H       2.6179270000     2.1965790000    -1.1615750000
 ----------------------------------------------------------------

   10   -1179.6354186265      8.50e-07  Convergence criterion met
 Total energy in the final basis set =    -1179.6354186265
        RIMP2         total energy =     -1181.6280137321 a.u.

                    Orbital Energies (a.u.)
 --------------------------------------------------------------

 Alpha MOs
 -- Occupied --
-91.9852 -91.9782 -11.2835 -11.2771 -11.2660 -11.2602 -11.2578 -11.2555
-11.2391 -11.2380 -11.2311 -11.2259  -8.9856  -8.9784  -6.6664  -6.6657
 -6.6652  -6.6593  -6.6587  -6.6580  -1.1891  -1.1468  -1.0459  -1.0222
 -1.0015  -0.9489  -0.9142  -0.8932  -0.7976  -0.7663  -0.7246  -0.6913
 -0.6577  -0.6195  -0.5877  -0.5817  -0.5770  -0.5701  -0.5510  -0.5351
 -0.5276  -0.5168  -0.5095  -0.4953  -0.4740  -0.4665  -0.4485  -0.3638
 -0.3473  -0.3358  -0.2647

          Ground-State Mulliken Net Atomic Charges

     Atom                 Charge (a.u.)
  ----------------------------------------
      1 C                    -0.244831
      2 C                    -0.241584
      3 C                     0.015975
      4 H                     0.182115
      5 C                     0.002706
      6 S                    -0.004048
      7 C                    -0.310245
      8 H                     0.110735
      9 H                     0.108908
     10 H                     0.114350
     11 H                     0.201795
     12 C                    -0.055884
     13 C                    -0.200562
     14 C                     0.022990
     15 H                     0.191494
     16 C                    -0.202397
     17 S                     0.050818
     18 C                    -0.265584
     19 H                     0.103926
     20 H                     0.108855
     21 H                     0.108252
     22 H                     0.202216
  ----------------------------------------
  Sum of atomic charges =     0.000000

                    Cartesian Multipole Moments
 -----------------------------------------------------------------
    Charge (ESU x 10^10)
                -0.0000
    Dipole Moment (Debye)
         X       1.7809      Y       1.1289      Z       0.1026
       Tot       2.1110
    Quadrupole Moments (Debye-Ang)
        XX     -84.5608     XY       7.0570     YY     -78.0465
        XZ       2.4443     YZ       2.9752     ZZ     -80.5977

 Total job time:  593.31s(wall), 590.64s(cpu)
        *  Thank you very much for using Q-Chem.  Have a nice day.  *
