 Q-Chem 5.4, Q-Chem, Inc., Pleasanton, CA (2021)
 Q-Chem 5.4.0 for Intel X86 EM64T Linux

User input:
--------------------------------------------------------------
$molecule
0 1
C	-0.135301	-3.866725	0.763228
C	0.106073	-3.703963	-0.603311
C	0.185286	-2.357056	-1.050423
H	0.225783	-4.561092	-1.283188
C	-0.000000	-1.440664	-0.000000
S	-0.268187	-2.286957	1.521021
C	0.438209	-1.978743	-2.483507
H	0.550153	-2.878678	-3.118798
H	1.363906	-1.376015	-2.593381
H	-0.393798	-1.375728	-2.903516
H	-0.239740	-4.783437	1.354194
C	0.000000	0.000000	0.000000
C	0.149995	0.850475	1.099446
C	0.390327	2.213354	0.776721
H	0.085947	0.487279	2.136088
C	0.428665	2.430655	-0.612546
S	0.163670	0.928078	-1.486809
C	0.579235	3.284574	1.814609
H	0.505323	2.865404	2.836676
H	-0.185980	4.083890	1.726239
H	1.571698	3.773937	1.726228
H	0.593515	3.365448	-1.161575
$end

$rem
JOBTYPE		SP
EXCHANGE	HF
CORRELATION	pRIMP2
BASIS		cc-pvtz
METHOD		rimp2
AUX_BASIS	rimp2-cc-pvtz
SOLVENT_METHOD	PCM
PURECART	11111
SYMMETRY	false
MEM_TOTAL	110000
SCF_CONVERGENCE = 6
THRESH=10
$end

$solvent
dielectric 4.90
$end
--------------------------------------------------------------

             Standard Nuclear Orientation (Angstroms)
    I     Atom           X                Y                Z
 ----------------------------------------------------------------
    1      C      -0.1353010000    -3.8667250000     0.7632280000
    2      C       0.1060730000    -3.7039630000    -0.6033110000
    3      C       0.1852860000    -2.3570560000    -1.0504230000
    4      H       0.2257830000    -4.5610920000    -1.2831880000
    5      C       0.0000000000    -1.4406640000     0.0000000000
    6      S      -0.2681870000    -2.2869570000     1.5210210000
    7      C       0.4382090000    -1.9787430000    -2.4835070000
    8      H       0.5501530000    -2.8786780000    -3.1187980000
    9      H       1.3639060000    -1.3760150000    -2.5933810000
   10      H      -0.3937980000    -1.3757280000    -2.9035160000
   11      H      -0.2397400000    -4.7834370000     1.3541940000
   12      C       0.0000000000     0.0000000000     0.0000000000
   13      C       0.1499950000     0.8504750000     1.0994460000
   14      C       0.3903270000     2.2133540000     0.7767210000
   15      H       0.0859470000     0.4872790000     2.1360880000
   16      C       0.4286650000     2.4306550000    -0.6125460000
   17      S       0.1636700000     0.9280780000    -1.4868090000
   18      C       0.5792350000     3.2845740000     1.8146090000
   19      H       0.5053230000     2.8654040000     2.8366760000
   20      H      -0.1859800000     4.0838900000     1.7262390000
   21      H       1.5716980000     3.7739370000     1.7262280000
   22      H       0.5935150000     3.3654480000    -1.1615750000
 ----------------------------------------------------------------

   10   -1179.6840067885      5.26e-07  Convergence criterion met
 Total energy in the final basis set =    -1179.6840067885
        RIMP2         total energy =     -1181.6651076820 a.u.

                    Orbital Energies (a.u.)
 --------------------------------------------------------------

 Alpha MOs
 -- Occupied --
-91.9850 -91.9845 -11.2839 -11.2786 -11.2728 -11.2620 -11.2539 -11.2521
-11.2436 -11.2400 -11.2301 -11.2288  -8.9848  -8.9845  -6.6656  -6.6654
 -6.6651  -6.6649  -6.6644  -6.6642  -1.1816  -1.1500  -1.0423  -1.0258
 -0.9988  -0.9525  -0.9150  -0.8952  -0.8003  -0.7654  -0.7197  -0.6961
 -0.6633  -0.6157  -0.5845  -0.5822  -0.5773  -0.5696  -0.5530  -0.5342
 -0.5236  -0.5209  -0.5117  -0.4963  -0.4897  -0.4673  -0.4505  -0.3709
 -0.3434  -0.3400  -0.2684

          Ground-State Mulliken Net Atomic Charges

     Atom                 Charge (a.u.)
  ----------------------------------------
      1 C                    -0.212208
      2 C                    -0.253089
      3 C                     0.048201
      4 H                     0.185102
      5 C                    -0.025168
      6 S                     0.007325
      7 C                    -0.320045
      8 H                     0.117334
      9 H                     0.119116
     10 H                     0.112634
     11 H                     0.207288
     12 C                     0.056802
     13 C                    -0.264587
     14 C                     0.031602
     15 H                     0.176877
     16 C                    -0.255018
     17 S                     0.019526
     18 C                    -0.270612
     19 H                     0.102736
     20 H                     0.108456
     21 H                     0.108561
     22 H                     0.199165
  ----------------------------------------
  Sum of atomic charges =     0.000000

                    Cartesian Multipole Moments
 -----------------------------------------------------------------
    Charge (ESU x 10^10)
                -0.0000
    Dipole Moment (Debye)
         X       0.6085      Y       0.0535      Z      -0.1714
       Tot       0.6345
    Quadrupole Moments (Debye-Ang)
        XX     -92.2253     XY       1.4358     YY     -68.9853
        XZ      -1.0233     YZ       3.2878     ZZ     -80.0183

 Total job time:  572.22s(wall), 569.04s(cpu)
        *  Thank you very much for using Q-Chem.  Have a nice day.  *
