 Q-Chem 5.4, Q-Chem, Inc., Pleasanton, CA (2021)
 Q-Chem 5.4.0 for Intel X86 EM64T Linux

User input:
--------------------------------------------------------------
$molecule
0 1
C	-0.763475	-3.866725	0.133897
C	0.603206	-3.703963	-0.106669
C	1.050446	-2.357056	-0.185154
H	1.283024	-4.561092	-0.226709
C	0.000000	-1.440664	0.000000
S	-1.521018	-2.286957	0.268206
C	2.483610	-1.978743	-0.437628
H	3.118875	-2.878678	-0.549717
H	2.903464	-1.376015	0.394664
H	2.593726	-1.375728	-1.363110
H	-1.354522	-4.783437	0.237880
C	0.000000	0.000000	0.000000
C	0.661577	0.555087	1.099446
C	1.721724	1.444630	0.776721
H	0.379056	0.318032	2.136088
C	1.890772	1.586449	-0.612546
S	0.721935	0.605744	-1.486809
C	2.555004	2.143805	1.814609
H	2.228946	1.870211	2.836676
H	2.482605	3.247987	1.726239
H	3.629830	1.880735	1.726228
H	2.617927	2.196579	-1.161575
$end

$rem
JOBTYPE		SP
EXCHANGE	HF
CORRELATION	pRIMP2
BASIS		cc-pvtz
METHOD		rimp2
AUX_BASIS	rimp2-cc-pvtz
SOLVENT_METHOD	PCM
PURECART	11111
SYMMETRY	false
MEM_TOTAL	110000
SCF_CONVERGENCE = 6
THRESH=10
$end

$solvent
dielectric 4.90
$end
--------------------------------------------------------------

             Standard Nuclear Orientation (Angstroms)
    I     Atom           X                Y                Z
 ----------------------------------------------------------------
    1      C      -0.7634750000    -3.8667250000     0.1338970000
    2      C       0.6032060000    -3.7039630000    -0.1066690000
    3      C       1.0504460000    -2.3570560000    -0.1851540000
    4      H       1.2830240000    -4.5610920000    -0.2267090000
    5      C       0.0000000000    -1.4406640000     0.0000000000
    6      S      -1.5210180000    -2.2869570000     0.2682060000
    7      C       2.4836100000    -1.9787430000    -0.4376280000
    8      H       3.1188750000    -2.8786780000    -0.5497170000
    9      H       2.9034640000    -1.3760150000     0.3946640000
   10      H       2.5937260000    -1.3757280000    -1.3631100000
   11      H      -1.3545220000    -4.7834370000     0.2378800000
   12      C       0.0000000000     0.0000000000     0.0000000000
   13      C       0.6615770000     0.5550870000     1.0994460000
   14      C       1.7217240000     1.4446300000     0.7767210000
   15      H       0.3790560000     0.3180320000     2.1360880000
   16      C       1.8907720000     1.5864490000    -0.6125460000
   17      S       0.7219350000     0.6057440000    -1.4868090000
   18      C       2.5550040000     2.1438050000     1.8146090000
   19      H       2.2289460000     1.8702110000     2.8366760000
   20      H       2.4826050000     3.2479870000     1.7262390000
   21      H       3.6298300000     1.8807350000     1.7262280000
   22      H       2.6179270000     2.1965790000    -1.1615750000
 ----------------------------------------------------------------

   10   -1179.6354738109      9.45e-07  Convergence criterion met
 Total energy in the final basis set =    -1179.6354738109
        RIMP2         total energy =     -1181.6287105442 a.u.

                    Orbital Energies (a.u.)
 --------------------------------------------------------------

 Alpha MOs
 -- Occupied --
-91.9836 -91.9758 -11.2822 -11.2735 -11.2630 -11.2599 -11.2587 -11.2531
-11.2434 -11.2379 -11.2311 -11.2237  -8.9837  -8.9758  -6.6645  -6.6638
 -6.6634  -6.6567  -6.6561  -6.6556  -1.1859  -1.1463  -1.0441  -1.0170
 -0.9999  -0.9528  -0.9122  -0.8900  -0.7955  -0.7530  -0.7360  -0.6945
 -0.6563  -0.6191  -0.5838  -0.5814  -0.5730  -0.5680  -0.5491  -0.5343
 -0.5253  -0.5226  -0.5124  -0.4886  -0.4681  -0.4656  -0.4483  -0.3515
 -0.3372  -0.3182  -0.2944

          Ground-State Mulliken Net Atomic Charges

     Atom                 Charge (a.u.)
  ----------------------------------------
      1 C                    -0.222609
      2 C                    -0.255971
      3 C                     0.049824
      4 H                     0.182711
      5 C                    -0.006709
      6 S                     0.002218
      7 C                    -0.313509
      8 H                     0.116284
      9 H                     0.113011
     10 H                     0.116103
     11 H                     0.200123
     12 C                    -0.111111
     13 C                    -0.159942
     14 C                     0.000117
     15 H                     0.188356
     16 C                    -0.184268
     17 S                     0.033373
     18 C                    -0.268432
     19 H                     0.103746
     20 H                     0.110238
     21 H                     0.105847
     22 H                     0.200600
  ----------------------------------------
  Sum of atomic charges =     0.000000

                    Cartesian Multipole Moments
 -----------------------------------------------------------------
    Charge (ESU x 10^10)
                -0.0000
    Dipole Moment (Debye)
         X       3.7789      Y       0.9205      Z       1.2968
       Tot       4.0999
    Quadrupole Moments (Debye-Ang)
        XX     -79.8825     XY       3.7791     YY     -77.8954
        XZ      -0.5449     YZ       1.1205     ZZ     -85.8001

 Total job time:  604.51s(wall), 600.23s(cpu)
        *  Thank you very much for using Q-Chem.  Have a nice day.  *
