 Q-Chem 5.4, Q-Chem, Inc., Pleasanton, CA (2021)
 Q-Chem 5.4.0 for Intel X86 EM64T Linux

User input:
--------------------------------------------------------------
$molecule
0 1
C	0.135301	-3.866725	-0.763228
C	-0.106073	-3.703963	0.603311
C	-0.185286	-2.357056	1.050423
H	-0.225783	-4.561092	1.283188
C	0.000000	-1.440664	0.000000
S	0.268187	-2.286957	-1.521021
C	-0.438209	-1.978743	2.483507
H	-0.550153	-2.878678	3.118798
H	-1.363906	-1.376015	2.593381
H	0.393798	-1.375728	2.903516
H	0.239740	-4.783437	-1.354194
C	0.000000	0.000000	0.000000
C	0.431829	0.747884	1.099446
C	1.123799	1.946373	0.776721
H	0.247423	0.428497	2.136088
C	1.234147	2.137457	-0.612546
S	0.471221	0.816130	-1.486809
C	1.667694	2.888380	1.814609
H	1.454874	2.519768	2.836676
H	1.222009	3.901210	1.726239
H	2.767675	3.008788	1.726228
H	1.708773	2.959493	-1.161575
$end

$rem
JOBTYPE		SP
EXCHANGE	HF
CORRELATION	pRIMP2
BASIS		cc-pvtz
METHOD		rimp2
AUX_BASIS	rimp2-cc-pvtz
SOLVENT_METHOD	PCM
PURECART	11111
SYMMETRY	false
MEM_TOTAL	110000
SCF_CONVERGENCE = 6
THRESH=10
$end

$solvent
dielectric 4.90
$end
--------------------------------------------------------------

 Q-Chem 5.4, Q-Chem, Inc., Pleasanton, CA (2021)
 Q-Chem 5.4.0 for Intel X86 EM64T Linux

User input:
--------------------------------------------------------------
$molecule
0 1
C	0.135301	-3.866725	-0.763228
C	-0.106073	-3.703963	0.603311
C	-0.185286	-2.357056	1.050423
H	-0.225783	-4.561092	1.283188
C	0.000000	-1.440664	0.000000
S	0.268187	-2.286957	-1.521021
C	-0.438209	-1.978743	2.483507
H	-0.550153	-2.878678	3.118798
H	-1.363906	-1.376015	2.593381
H	0.393798	-1.375728	2.903516
H	0.239740	-4.783437	-1.354194
C	0.000000	0.000000	0.000000
C	0.431829	0.747884	1.099446
C	1.123799	1.946373	0.776721
H	0.247423	0.428497	2.136088
C	1.234147	2.137457	-0.612546
S	0.471221	0.816130	-1.486809
C	1.667694	2.888380	1.814609
H	1.454874	2.519768	2.836676
H	1.222009	3.901210	1.726239
H	2.767675	3.008788	1.726228
H	1.708773	2.959493	-1.161575
$end

$rem
JOBTYPE		SP
EXCHANGE	HF
CORRELATION	pRIMP2
BASIS		cc-pvtz
METHOD		rimp2
AUX_BASIS	rimp2-cc-pvtz
SOLVENT_METHOD	PCM
PURECART	11111
SYMMETRY	false
MEM_TOTAL	110000
SCF_CONVERGENCE = 6
THRESH=10
$end

$solvent
dielectric 4.90
$end
--------------------------------------------------------------

             Standard Nuclear Orientation (Angstroms)
    I     Atom           X                Y                Z
 ----------------------------------------------------------------
    1      C       0.1353010000    -3.8667250000    -0.7632280000
    2      C      -0.1060730000    -3.7039630000     0.6033110000
    3      C      -0.1852860000    -2.3570560000     1.0504230000
    4      H      -0.2257830000    -4.5610920000     1.2831880000
    5      C       0.0000000000    -1.4406640000     0.0000000000
    6      S       0.2681870000    -2.2869570000    -1.5210210000
    7      C      -0.4382090000    -1.9787430000     2.4835070000
    8      H      -0.5501530000    -2.8786780000     3.1187980000
    9      H      -1.3639060000    -1.3760150000     2.5933810000
   10      H       0.3937980000    -1.3757280000     2.9035160000
   11      H       0.2397400000    -4.7834370000    -1.3541940000
   12      C       0.0000000000     0.0000000000     0.0000000000
   13      C       0.4318290000     0.7478840000     1.0994460000
   14      C       1.1237990000     1.9463730000     0.7767210000
   15      H       0.2474230000     0.4284970000     2.1360880000
   16      C       1.2341470000     2.1374570000    -0.6125460000
   17      S       0.4712210000     0.8161300000    -1.4868090000
   18      C       1.6676940000     2.8883800000     1.8146090000
   19      H       1.4548740000     2.5197680000     2.8366760000
   20      H       1.2220090000     3.9012100000     1.7262390000
   21      H       2.7676750000     3.0087880000     1.7262280000
   22      H       1.7087730000     2.9594930000    -1.1615750000
 ----------------------------------------------------------------

   10   -1179.6661873250      5.28e-07  Convergence criterion met
 Total energy in the final basis set =    -1179.6661873250
        RIMP2         total energy =     -1181.6512752507 a.u.

                    Orbital Energies (a.u.)
 --------------------------------------------------------------

 Alpha MOs
 -- Occupied --
-91.9856 -91.9821 -11.2790 -11.2781 -11.2712 -11.2668 -11.2535 -11.2473
-11.2466 -11.2418 -11.2303 -11.2302  -8.9857  -8.9822  -6.6666  -6.6660
 -6.6654  -6.6631  -6.6626  -6.6619  -1.1837  -1.1493  -1.0436  -1.0260
 -0.9960  -0.9564  -0.9130  -0.8947  -0.8024  -0.7560  -0.7284  -0.7009
 -0.6597  -0.6143  -0.5925  -0.5822  -0.5707  -0.5625  -0.5518  -0.5407
 -0.5309  -0.5223  -0.5051  -0.4902  -0.4833  -0.4767  -0.4482  -0.3711
 -0.3480  -0.3351  -0.2663

          Ground-State Mulliken Net Atomic Charges

     Atom                 Charge (a.u.)
  ----------------------------------------
      1 C                    -0.229620
      2 C                    -0.245193
      3 C                     0.047430
      4 H                     0.183445
      5 C                    -0.025541
      6 S                     0.006960
      7 C                    -0.313630
      8 H                     0.116566
      9 H                     0.113959
     10 H                     0.102319
     11 H                     0.205442
     12 C                     0.007544
     13 C                    -0.221690
     14 C                     0.021337
     15 H                     0.194804
     16 C                    -0.228355
     17 S                     0.012853
     18 C                    -0.269409
     19 H                     0.101760
     20 H                     0.109012
     21 H                     0.108449
     22 H                     0.201558
  ----------------------------------------
  Sum of atomic charges =     0.000000

                    Cartesian Multipole Moments
 -----------------------------------------------------------------
    Charge (ESU x 10^10)
                -0.0000
    Dipole Moment (Debye)
         X       0.9034      Y       0.6664      Z       2.9274
       Tot       3.1353
    Quadrupole Moments (Debye-Ang)
        XX     -89.5854     XY       5.4107     YY     -72.3871
        XZ      -0.6399     YZ      -1.4069     ZZ     -80.2926

 Total job time:  587.46s(wall), 564.00s(cpu)
        *  Thank you very much for using Q-Chem.  Have a nice day.  *
