 Q-Chem 5.4, Q-Chem, Inc., Pleasanton, CA (2021)
 Q-Chem 5.4.0 for Intel X86 EM64T Linux

User input:
--------------------------------------------------------------
$molecule
0 1
C	-0.497696	-3.866725	-0.594240
C	0.393981	-3.703963	0.469057
C	0.685571	-2.357056	0.817136
H	0.837848	-4.561092	0.997777
C	0.000000	-1.440664	0.000000
S	-0.992782	-2.286957	-1.183137
C	1.620802	-1.978743	1.932056
H	2.035506	-2.878678	2.426166
H	1.109943	-1.376015	2.711806
H	2.477350	-1.375728	1.564678
H	-0.883271	-4.783437	-1.054110
C	0.000000	0.000000	0.000000
C	0.223548	0.834165	1.099446
C	0.581748	2.170912	0.776721
H	0.128089	0.477934	2.136088
C	0.638880	2.384045	-0.612546
S	0.243934	0.910282	-1.486809
C	0.863301	3.221592	1.814609
H	0.753137	2.810458	2.836676
H	0.170663	4.084559	1.726239
H	1.894637	3.622593	1.726228
H	0.884575	3.300913	-1.161575
$end

$rem
JOBTYPE		SP
EXCHANGE	HF
CORRELATION	pRIMP2
BASIS		cc-pvtz
METHOD		rimp2
AUX_BASIS	rimp2-cc-pvtz
SOLVENT_METHOD	PCM
PURECART	11111
SYMMETRY	false
MEM_TOTAL	110000
SCF_CONVERGENCE = 6
THRESH=10
$end

$solvent
dielectric 4.90
$end
--------------------------------------------------------------

             Standard Nuclear Orientation (Angstroms)
    I     Atom           X                Y                Z
 ----------------------------------------------------------------
    1      C      -0.4976960000    -3.8667250000    -0.5942400000
    2      C       0.3939810000    -3.7039630000     0.4690570000
    3      C       0.6855710000    -2.3570560000     0.8171360000
    4      H       0.8378480000    -4.5610920000     0.9977770000
    5      C       0.0000000000    -1.4406640000     0.0000000000
    6      S      -0.9927820000    -2.2869570000    -1.1831370000
    7      C       1.6208020000    -1.9787430000     1.9320560000
    8      H       2.0355060000    -2.8786780000     2.4261660000
    9      H       1.1099430000    -1.3760150000     2.7118060000
   10      H       2.4773500000    -1.3757280000     1.5646780000
   11      H      -0.8832710000    -4.7834370000    -1.0541100000
   12      C       0.0000000000     0.0000000000     0.0000000000
   13      C       0.2235480000     0.8341650000     1.0994460000
   14      C       0.5817480000     2.1709120000     0.7767210000
   15      H       0.1280890000     0.4779340000     2.1360880000
   16      C       0.6388800000     2.3840450000    -0.6125460000
   17      S       0.2439340000     0.9102820000    -1.4868090000
   18      C       0.8633010000     3.2215920000     1.8146090000
   19      H       0.7531370000     2.8104580000     2.8366760000
   20      H       0.1706630000     4.0845590000     1.7262390000
   21      H       1.8946370000     3.6225930000     1.7262280000
   22      H       0.8845750000     3.3009130000    -1.1615750000
 ----------------------------------------------------------------

   10   -1179.6821642317      5.17e-07  Convergence criterion met
 Total energy in the final basis set =    -1179.6821642317
        RIMP2         total energy =     -1181.6625033476 a.u.

                    Orbital Energies (a.u.)
 --------------------------------------------------------------

 Alpha MOs
 -- Occupied --
-91.9856 -91.9839 -11.2799 -11.2762 -11.2723 -11.2654 -11.2537 -11.2520
-11.2430 -11.2418 -11.2298 -11.2295  -8.9852  -8.9838  -6.6661  -6.6656
 -6.6650  -6.6648  -6.6642  -6.6636  -1.1805  -1.1499  -1.0414  -1.0252
 -0.9962  -0.9556  -0.9135  -0.8935  -0.8017  -0.7549  -0.7296  -0.6987
 -0.6617  -0.6151  -0.5875  -0.5807  -0.5706  -0.5642  -0.5517  -0.5372
 -0.5290  -0.5225  -0.5068  -0.4916  -0.4857  -0.4711  -0.4566  -0.3564
 -0.3431  -0.3403  -0.2774

          Ground-State Mulliken Net Atomic Charges

     Atom                 Charge (a.u.)
  ----------------------------------------
      1 C                    -0.213240
      2 C                    -0.248589
      3 C                     0.057748
      4 H                     0.184210
      5 C                    -0.033309
      6 S                     0.017227
      7 C                    -0.293568
      8 H                     0.113979
      9 H                     0.106329
     10 H                     0.116340
     11 H                     0.205553
     12 C                     0.004092
     13 C                    -0.275768
     14 C                     0.042281
     15 H                     0.192722
     16 C                    -0.249203
     17 S                     0.025983
     18 C                    -0.270630
     19 H                     0.102113
     20 H                     0.108794
     21 H                     0.108622
     22 H                     0.198317
  ----------------------------------------
  Sum of atomic charges =     0.000000

                    Cartesian Multipole Moments
 -----------------------------------------------------------------
    Charge (ESU x 10^10)
                -0.0000
    Dipole Moment (Debye)
         X       1.4915      Y       0.2308      Z       2.6359
       Tot       3.0374
    Quadrupole Moments (Debye-Ang)
        XX     -89.2826     XY       1.4152     YY     -69.2794
        XZ       3.4937     YZ      -0.6631     ZZ     -82.8968

 Total job time:  557.45s(wall), 552.62s(cpu)
        *  Thank you very much for using Q-Chem.  Have a nice day.  *
