 Q-Chem 5.4, Q-Chem, Inc., Pleasanton, CA (2021)
 Q-Chem 5.4.0 for Intel X86 EM64T Linux

User input:
--------------------------------------------------------------
$molecule
0 1
C	-0.264439	-3.866725	-0.728625
C	0.209794	-3.703963	0.575519
C	0.364749	-2.357056	1.002336
H	0.446060	-4.561092	1.224165
C	0.000000	-1.440664	0.000000
S	-0.528253	-2.286957	-1.451336
C	0.862253	-1.978743	2.369885
H	1.082953	-2.878678	2.976034
H	0.115513	-1.376015	2.927887
H	1.792797	-1.375728	2.317620
H	-0.469476	-4.783437	-1.292636
C	0.000000	0.000000	0.000000
C	0.000033	0.863600	1.099446
C	0.000052	2.247508	0.776721
H	0.000026	0.494801	2.136088
C	0.000074	2.468165	-0.612546
S	0.000024	0.942399	-1.486809
C	0.000075	3.335257	1.814609
H	0.000074	2.909620	2.836676
H	-0.892314	3.989552	1.726239
H	0.892483	3.989525	1.726228
H	0.000094	3.417382	-1.161575
$end

$rem
JOBTYPE		SP
EXCHANGE	HF
CORRELATION	pRIMP2
BASIS		cc-pvtz
METHOD		rimp2
AUX_BASIS	rimp2-cc-pvtz
SOLVENT_METHOD	PCM
PURECART	11111
SYMMETRY	false
MEM_TOTAL	110000
SCF_CONVERGENCE = 6
THRESH=10
$end

$solvent
dielectric 4.90
$end
--------------------------------------------------------------

             Standard Nuclear Orientation (Angstroms)
    I     Atom           X                Y                Z
 ----------------------------------------------------------------
    1      C      -0.2644390000    -3.8667250000    -0.7286250000
    2      C       0.2097940000    -3.7039630000     0.5755190000
    3      C       0.3647490000    -2.3570560000     1.0023360000
    4      H       0.4460600000    -4.5610920000     1.2241650000
    5      C       0.0000000000    -1.4406640000     0.0000000000
    6      S      -0.5282530000    -2.2869570000    -1.4513360000
    7      C       0.8622530000    -1.9787430000     2.3698850000
    8      H       1.0829530000    -2.8786780000     2.9760340000
    9      H       0.1155130000    -1.3760150000     2.9278870000
   10      H       1.7927970000    -1.3757280000     2.3176200000
   11      H      -0.4694760000    -4.7834370000    -1.2926360000
   12      C       0.0000000000     0.0000000000     0.0000000000
   13      C       0.0000330000     0.8636000000     1.0994460000
   14      C       0.0000520000     2.2475080000     0.7767210000
   15      H       0.0000260000     0.4948010000     2.1360880000
   16      C       0.0000740000     2.4681650000    -0.6125460000
   17      S       0.0000240000     0.9423990000    -1.4868090000
   18      C       0.0000750000     3.3352570000     1.8146090000
   19      H       0.0000740000     2.9096200000     2.8366760000
   20      H      -0.8923140000     3.9895520000     1.7262390000
   21      H       0.8924830000     3.9895250000     1.7262280000
   22      H       0.0000940000     3.4173820000    -1.1615750000
 ----------------------------------------------------------------

   10   -1179.6859823535      5.27e-07  Convergence criterion met
 Total energy in the final basis set =    -1179.6859823535
        RIMP2         total energy =     -1181.6657259642 a.u.

                    Orbital Energies (a.u.)
 --------------------------------------------------------------

 Alpha MOs
 -- Occupied --
-91.9861 -91.9854 -11.2837 -11.2783 -11.2729 -11.2637 -11.2543 -11.2522
-11.2441 -11.2399 -11.2315 -11.2294  -8.9858  -8.9853  -6.6667  -6.6663
 -6.6662  -6.6657  -6.6655  -6.6651  -1.1814  -1.1504  -1.0419  -1.0274
 -0.9960  -0.9565  -0.9144  -0.8945  -0.8034  -0.7567  -0.7276  -0.7003
 -0.6625  -0.6144  -0.5900  -0.5820  -0.5702  -0.5640  -0.5523  -0.5395
 -0.5299  -0.5233  -0.5049  -0.4908  -0.4891  -0.4765  -0.4525  -0.3678
 -0.3465  -0.3384  -0.2708

          Ground-State Mulliken Net Atomic Charges

     Atom                 Charge (a.u.)
  ----------------------------------------
      1 C                    -0.213396
      2 C                    -0.253875
      3 C                     0.070842
      4 H                     0.184171
      5 C                    -0.048179
      6 S                     0.010374
      7 C                    -0.310758
      8 H                     0.116934
      9 H                     0.106580
     10 H                     0.118248
     11 H                     0.207168
     12 C                     0.027437
     13 C                    -0.240780
     14 C                     0.022422
     15 H                     0.195278
     16 C                    -0.249823
     17 S                     0.010710
     18 C                    -0.272071
     19 H                     0.101603
     20 H                     0.108907
     21 H                     0.108717
     22 H                     0.199492
  ----------------------------------------
  Sum of atomic charges =     0.000000

                    Cartesian Multipole Moments
 -----------------------------------------------------------------
    Charge (ESU x 10^10)
                -0.0000
    Dipole Moment (Debye)
         X       0.5154      Y       0.1219      Z       2.8434
       Tot       2.8923
    Quadrupole Moments (Debye-Ang)
        XX     -91.9894     XY      -0.7350     YY     -68.2288
        XZ       2.1621     YZ      -1.0046     ZZ     -80.8459

 Total job time:  591.89s(wall), 587.40s(cpu)
        *  Thank you very much for using Q-Chem.  Have a nice day.  *
