 Q-Chem 5.4, Q-Chem, Inc., Pleasanton, CA (2021)
 Q-Chem 5.4.0 for Intel X86 EM64T Linux

User input:
--------------------------------------------------------------
$molecule
0 1
C	0.763475	-3.866725	-0.133897
C	-0.603206	-3.703963	0.106669
C	-1.050446	-2.357056	0.185154
H	-1.283024	-4.561092	0.226709
C	0.000000	-1.440664	0.000000
S	1.521018	-2.286957	-0.268206
C	-2.483610	-1.978743	0.437628
H	-3.118875	-2.878678	0.549717
H	-2.903464	-1.376015	-0.394664
H	-2.593726	-1.375728	1.363110
H	1.354522	-4.783437	-0.237880
C	0.000000	0.000000	0.000000
C	0.223548	0.834165	1.099446
C	0.581748	2.170912	0.776721
H	0.128089	0.477934	2.136088
C	0.638880	2.384045	-0.612546
S	0.243934	0.910282	-1.486809
C	0.863301	3.221592	1.814609
H	0.753137	2.810458	2.836676
H	0.170663	4.084559	1.726239
H	1.894637	3.622593	1.726228
H	0.884575	3.300913	-1.161575
$end

$rem
JOBTYPE		SP
EXCHANGE	HF
CORRELATION	pRIMP2
BASIS		cc-pvtz
METHOD		rimp2
AUX_BASIS	rimp2-cc-pvtz
SOLVENT_METHOD	PCM
PURECART	11111
SYMMETRY	false
MEM_TOTAL	110000
SCF_CONVERGENCE = 6
THRESH=10
$end

$solvent
dielectric 4.90
$end
--------------------------------------------------------------

             Standard Nuclear Orientation (Angstroms)
    I     Atom           X                Y                Z
 ----------------------------------------------------------------
    1      C       0.7634750000    -3.8667250000    -0.1338970000
    2      C      -0.6032060000    -3.7039630000     0.1066690000
    3      C      -1.0504460000    -2.3570560000     0.1851540000
    4      H      -1.2830240000    -4.5610920000     0.2267090000
    5      C       0.0000000000    -1.4406640000     0.0000000000
    6      S       1.5210180000    -2.2869570000    -0.2682060000
    7      C      -2.4836100000    -1.9787430000     0.4376280000
    8      H      -3.1188750000    -2.8786780000     0.5497170000
    9      H      -2.9034640000    -1.3760150000    -0.3946640000
   10      H      -2.5937260000    -1.3757280000     1.3631100000
   11      H       1.3545220000    -4.7834370000    -0.2378800000
   12      C       0.0000000000     0.0000000000     0.0000000000
   13      C       0.2235480000     0.8341650000     1.0994460000
   14      C       0.5817480000     2.1709120000     0.7767210000
   15      H       0.1280890000     0.4779340000     2.1360880000
   16      C       0.6388800000     2.3840450000    -0.6125460000
   17      S       0.2439340000     0.9102820000    -1.4868090000
   18      C       0.8633010000     3.2215920000     1.8146090000
   19      H       0.7531370000     2.8104580000     2.8366760000
   20      H       0.1706630000     4.0845590000     1.7262390000
   21      H       1.8946370000     3.6225930000     1.7262280000
   22      H       0.8845750000     3.3009130000    -1.1615750000
 ----------------------------------------------------------------

   10   -1179.6813823870      5.03e-07  Convergence criterion met
 Total energy in the final basis set =    -1179.6813823870
        RIMP2         total energy =     -1181.6599564003 a.u.

                    Orbital Energies (a.u.)
 --------------------------------------------------------------

 Alpha MOs
 -- Occupied --
-91.9852 -91.9840 -11.2771 -11.2723 -11.2719 -11.2660 -11.2527 -11.2509
-11.2435 -11.2412 -11.2292 -11.2290  -8.9847  -8.9836  -6.6656  -6.6651
 -6.6645  -6.6645  -6.6639  -6.6633  -1.1787  -1.1493  -1.0402  -1.0229
 -0.9967  -0.9541  -0.9129  -0.8922  -0.8008  -0.7525  -0.7315  -0.6945
 -0.6619  -0.6162  -0.5829  -0.5792  -0.5702  -0.5688  -0.5518  -0.5311
 -0.5306  -0.5196  -0.5077  -0.4915  -0.4857  -0.4653  -0.4624  -0.3490
 -0.3363  -0.3200  -0.3031

          Ground-State Mulliken Net Atomic Charges

     Atom                 Charge (a.u.)
  ----------------------------------------
      1 C                    -0.206941
      2 C                    -0.251382
      3 C                     0.055994
      4 H                     0.183461
      5 C                    -0.061710
      6 S                     0.025956
      7 C                    -0.282941
      8 H                     0.106880
      9 H                     0.110807
     10 H                     0.108989
     11 H                     0.204416
     12 C                    -0.007897
     13 C                    -0.228558
     14 C                     0.021924
     15 H                     0.185398
     16 C                    -0.236141
     17 S                     0.026396
     18 C                    -0.271044
     19 H                     0.102624
     20 H                     0.107780
     21 H                     0.108222
     22 H                     0.197768
  ----------------------------------------
  Sum of atomic charges =     0.000000

                    Cartesian Multipole Moments
 -----------------------------------------------------------------
    Charge (ESU x 10^10)
                -0.0000
    Dipole Moment (Debye)
         X      -0.9521      Y       0.3032      Z       1.7214
       Tot       1.9904
    Quadrupole Moments (Debye-Ang)
        XX     -85.6203     XY       4.8333     YY     -69.5971
        XZ      -0.8343     YZ       0.5904     ZZ     -86.4754

 Total job time:  550.55s(wall), 545.99s(cpu)
        *  Thank you very much for using Q-Chem.  Have a nice day.  *
