 Q-Chem 5.4, Q-Chem, Inc., Pleasanton, CA (2021)
 Q-Chem 5.4.0 for Intel X86 EM64T Linux

User input:
--------------------------------------------------------------
$molecule
0 1
C	-0.264439	-3.866725	-0.728625
C	0.209794	-3.703963	0.575519
C	0.364749	-2.357056	1.002336
H	0.446060	-4.561092	1.224165
C	-0.000000	-1.440664	-0.000000
S	-0.528253	-2.286957	-1.451336
C	0.862253	-1.978743	2.369885
H	1.082953	-2.878678	2.976034
H	0.115513	-1.376015	2.927887
H	1.792797	-1.375728	2.317620
H	-0.469476	-4.783437	-1.292636
C	0.000000	0.000000	0.000000
C	0.555137	0.661535	1.099446
C	1.444710	1.721658	0.776721
H	0.318072	0.379023	2.136088
C	1.586563	1.890676	-0.612546
S	0.605781	0.721904	-1.486809
C	2.143920	2.554907	1.814609
H	1.870325	2.228851	2.836676
H	1.880882	3.629742	1.726239
H	3.248098	2.482476	1.726228
H	2.196723	2.617806	-1.161575
$end

$rem
JOBTYPE		SP
EXCHANGE	HF
CORRELATION	pRIMP2
BASIS		cc-pvtz
METHOD		rimp2
AUX_BASIS	rimp2-cc-pvtz
SOLVENT_METHOD	PCM
PURECART	11111
SYMMETRY	false
MEM_TOTAL	110000
SCF_CONVERGENCE = 6
THRESH=10
$end

$solvent
dielectric 4.90
$end
--------------------------------------------------------------

             Standard Nuclear Orientation (Angstroms)
    I     Atom           X                Y                Z
 ----------------------------------------------------------------
    1      C      -0.2644390000    -3.8667250000    -0.7286250000
    2      C       0.2097940000    -3.7039630000     0.5755190000
    3      C       0.3647490000    -2.3570560000     1.0023360000
    4      H       0.4460600000    -4.5610920000     1.2241650000
    5      C       0.0000000000    -1.4406640000     0.0000000000
    6      S      -0.5282530000    -2.2869570000    -1.4513360000
    7      C       0.8622530000    -1.9787430000     2.3698850000
    8      H       1.0829530000    -2.8786780000     2.9760340000
    9      H       0.1155130000    -1.3760150000     2.9278870000
   10      H       1.7927970000    -1.3757280000     2.3176200000
   11      H      -0.4694760000    -4.7834370000    -1.2926360000
   12      C       0.0000000000     0.0000000000     0.0000000000
   13      C       0.5551370000     0.6615350000     1.0994460000
   14      C       1.4447100000     1.7216580000     0.7767210000
   15      H       0.3180720000     0.3790230000     2.1360880000
   16      C       1.5865630000     1.8906760000    -0.6125460000
   17      S       0.6057810000     0.7219040000    -1.4868090000
   18      C       2.1439200000     2.5549070000     1.8146090000
   19      H       1.8703250000     2.2288510000     2.8366760000
   20      H       1.8808820000     3.6297420000     1.7262390000
   21      H       3.2480980000     2.4824760000     1.7262280000
   22      H       2.1967230000     2.6178060000    -1.1615750000
 ----------------------------------------------------------------

   10   -1179.6510890390      7.59e-07  Convergence criterion met
 Total energy in the final basis set =    -1179.6510890390
        RIMP2         total energy =     -1181.6398364342 a.u.

                    Orbital Energies (a.u.)
 --------------------------------------------------------------

 Alpha MOs
 -- Occupied --
-91.9840 -91.9784 -11.2779 -11.2760 -11.2712 -11.2662 -11.2534 -11.2497
-11.2463 -11.2408 -11.2307 -11.2296  -8.9843  -8.9788  -6.6651  -6.6645
 -6.6639  -6.6598  -6.6592  -6.6586  -1.1850  -1.1484  -1.0440  -1.0258
 -0.9959  -0.9548  -0.9136  -0.8942  -0.7997  -0.7560  -0.7296  -0.7018
 -0.6577  -0.6151  -0.5939  -0.5825  -0.5708  -0.5617  -0.5507  -0.5410
 -0.5286  -0.5237  -0.5053  -0.4898  -0.4791  -0.4710  -0.4501  -0.3654
 -0.3473  -0.3355  -0.2672

          Ground-State Mulliken Net Atomic Charges

     Atom                 Charge (a.u.)
  ----------------------------------------
      1 C                    -0.223198
      2 C                    -0.251044
      3 C                     0.052686
      4 H                     0.183465
      5 C                    -0.025098
      6 S                     0.000567
      7 C                    -0.307761
      8 H                     0.115741
      9 H                     0.102996
     10 H                     0.115134
     11 H                     0.204381
     12 C                    -0.017232
     13 C                    -0.251428
     14 C                     0.038255
     15 H                     0.202463
     16 C                    -0.223754
     17 S                     0.032114
     18 C                    -0.270271
     19 H                     0.102369
     20 H                     0.110545
     21 H                     0.108331
     22 H                     0.200740
  ----------------------------------------
  Sum of atomic charges =     0.000000

                    Cartesian Multipole Moments
 -----------------------------------------------------------------
    Charge (ESU x 10^10)
                -0.0000
    Dipole Moment (Debye)
         X       2.1733      Y       0.7470      Z       2.9969
       Tot       3.7766
    Quadrupole Moments (Debye-Ang)
        XX     -86.9716     XY       5.0526     YY     -74.6435
        XZ       2.5645     YZ      -1.4725     ZZ     -80.9241

 Total job time:  596.58s(wall), 592.86s(cpu)
        *  Thank you very much for using Q-Chem.  Have a nice day.  *
