 Q-Chem 5.4, Q-Chem, Inc., Pleasanton, CA (2021)
 Q-Chem 5.4.0 for Intel X86 EM64T Linux

User input:
--------------------------------------------------------------
$molecule
0 1
C	0.775127	-3.866725	0.000713
C	-0.612565	-3.703963	0.000302
C	-1.066639	-2.357056	-0.000067
H	-1.302900	-4.561092	0.000470
C	0.000000	-1.440664	0.000000
S	1.544483	-2.286957	-0.000009
C	-2.521872	-1.978743	-0.000295
H	-3.166949	-2.878678	-0.000221
H	-2.790821	-1.376015	-0.892850
H	-2.791023	-1.375728	0.892005
H	1.375251	-4.783437	0.000945
C	0.000000	0.000000	0.000000
C	0.000033	0.863600	1.099446
C	0.000052	2.247508	0.776721
H	0.000026	0.494801	2.136088
C	0.000074	2.468165	-0.612546
S	0.000024	0.942399	-1.486809
C	0.000075	3.335257	1.814609
H	0.000074	2.909620	2.836676
H	-0.892314	3.989552	1.726239
H	0.892483	3.989525	1.726228
H	0.000094	3.417382	-1.161575
$end

$rem
JOBTYPE		SP
EXCHANGE	HF
CORRELATION	pRIMP2
BASIS		cc-pvtz
METHOD		rimp2
AUX_BASIS	rimp2-cc-pvtz
SOLVENT_METHOD	PCM
PURECART	11111
SYMMETRY	false
MEM_TOTAL	110000
SCF_CONVERGENCE = 6
THRESH=10
$end

$solvent
dielectric 4.90
$end
--------------------------------------------------------------

             Standard Nuclear Orientation (Angstroms)
    I     Atom           X                Y                Z
 ----------------------------------------------------------------
    1      C       0.7751270000    -3.8667250000     0.0007130000
    2      C      -0.6125650000    -3.7039630000     0.0003020000
    3      C      -1.0666390000    -2.3570560000    -0.0000670000
    4      H      -1.3029000000    -4.5610920000     0.0004700000
    5      C       0.0000000000    -1.4406640000     0.0000000000
    6      S       1.5444830000    -2.2869570000    -0.0000090000
    7      C      -2.5218720000    -1.9787430000    -0.0002950000
    8      H      -3.1669490000    -2.8786780000    -0.0002210000
    9      H      -2.7908210000    -1.3760150000    -0.8928500000
   10      H      -2.7910230000    -1.3757280000     0.8920050000
   11      H       1.3752510000    -4.7834370000     0.0009450000
   12      C       0.0000000000     0.0000000000     0.0000000000
   13      C       0.0000330000     0.8636000000     1.0994460000
   14      C       0.0000520000     2.2475080000     0.7767210000
   15      H       0.0000260000     0.4948010000     2.1360880000
   16      C       0.0000740000     2.4681650000    -0.6125460000
   17      S       0.0000240000     0.9423990000    -1.4868090000
   18      C       0.0000750000     3.3352570000     1.8146090000
   19      H       0.0000740000     2.9096200000     2.8366760000
   20      H      -0.8923140000     3.9895520000     1.7262390000
   21      H       0.8924830000     3.9895250000     1.7262280000
   22      H       0.0000940000     3.4173820000    -1.1615750000
 ----------------------------------------------------------------

   10   -1179.6855553067      5.05e-07  Convergence criterion met
 Total energy in the final basis set =    -1179.6855553067
        RIMP2         total energy =     -1181.6633034038 a.u.

                    Orbital Energies (a.u.)
 --------------------------------------------------------------

 Alpha MOs
 -- Occupied --
-91.9854 -91.9844 -11.2786 -11.2726 -11.2726 -11.2647 -11.2543 -11.2508
-11.2424 -11.2418 -11.2294 -11.2289  -8.9848  -8.9841  -6.6657  -6.6652
 -6.6649  -6.6646  -6.6644  -6.6638  -1.1783  -1.1496  -1.0399  -1.0231
 -0.9971  -0.9541  -0.9135  -0.8922  -0.8008  -0.7539  -0.7303  -0.6950
 -0.6624  -0.6162  -0.5823  -0.5791  -0.5711  -0.5691  -0.5520  -0.5312
 -0.5298  -0.5200  -0.5077  -0.4918  -0.4882  -0.4639  -0.4631  -0.3461
 -0.3381  -0.3132  -0.3116

          Ground-State Mulliken Net Atomic Charges

     Atom                 Charge (a.u.)
  ----------------------------------------
      1 C                    -0.212776
      2 C                    -0.247993
      3 C                     0.045724
      4 H                     0.184289
      5 C                    -0.047255
      6 S                     0.026049
      7 C                    -0.280602
      8 H                     0.107477
      9 H                     0.110312
     10 H                     0.109887
     11 H                     0.204345
     12 C                    -0.011571
     13 C                    -0.226549
     14 C                     0.017188
     15 H                     0.186319
     16 C                    -0.237765
     17 S                     0.027655
     18 C                    -0.271325
     19 H                     0.102721
     20 H                     0.107787
     21 H                     0.108344
     22 H                     0.197740
  ----------------------------------------
  Sum of atomic charges =     0.000000

                    Cartesian Multipole Moments
 -----------------------------------------------------------------
    Charge (ESU x 10^10)
                -0.0000
    Dipole Moment (Debye)
         X      -1.5104      Y       0.2410      Z       1.4445
       Tot       2.1038
    Quadrupole Moments (Debye-Ang)
        XX     -86.1389     XY       2.1467     YY     -68.7068
        XZ       0.0188     YZ       1.0299     ZZ     -86.7330

 Total job time:  582.03s(wall), 579.42s(cpu)
        *  Thank you very much for using Q-Chem.  Have a nice day.  *
