 Q-Chem 5.4, Q-Chem, Inc., Pleasanton, CA (2021)
 Q-Chem 5.4.0 for Intel X86 EM64T Linux

User input:
--------------------------------------------------------------
$molecule
0 1
C	0.763475	-3.866725	-0.133897
C	-0.603206	-3.703963	0.106669
C	-1.050446	-2.357056	0.185154
H	-1.283024	-4.561092	0.226709
C	-0.000000	-1.440664	-0.000000
S	1.521018	-2.286957	-0.268206
C	-2.483610	-1.978743	0.437628
H	-3.118875	-2.878678	0.549717
H	-2.903464	-1.376015	-0.394664
H	-2.593726	-1.375728	1.363110
H	1.354522	-4.783437	-0.237880
C	0.000000	0.000000	0.000000
C	0.149995	0.850475	1.099446
C	0.390327	2.213354	0.776721
H	0.085947	0.487279	2.136088
C	0.428665	2.430655	-0.612546
S	0.163670	0.928078	-1.486809
C	0.579235	3.284574	1.814609
H	0.505323	2.865404	2.836676
H	-0.185980	4.083890	1.726239
H	1.571698	3.773937	1.726228
H	0.593515	3.365448	-1.161575
$end

$rem
JOBTYPE		SP
EXCHANGE	HF
CORRELATION	pRIMP2
BASIS		cc-pvtz
METHOD		rimp2
AUX_BASIS	rimp2-cc-pvtz
SOLVENT_METHOD	PCM
PURECART	11111
SYMMETRY	false
MEM_TOTAL	110000
SCF_CONVERGENCE = 6
THRESH=10
$end

$solvent
dielectric 4.90
$end
--------------------------------------------------------------

             Standard Nuclear Orientation (Angstroms)
    I     Atom           X                Y                Z
 ----------------------------------------------------------------
    1      C       0.7634750000    -3.8667250000    -0.1338970000
    2      C      -0.6032060000    -3.7039630000     0.1066690000
    3      C      -1.0504460000    -2.3570560000     0.1851540000
    4      H      -1.2830240000    -4.5610920000     0.2267090000
    5      C       0.0000000000    -1.4406640000     0.0000000000
    6      S       1.5210180000    -2.2869570000    -0.2682060000
    7      C      -2.4836100000    -1.9787430000     0.4376280000
    8      H      -3.1188750000    -2.8786780000     0.5497170000
    9      H      -2.9034640000    -1.3760150000    -0.3946640000
   10      H      -2.5937260000    -1.3757280000     1.3631100000
   11      H       1.3545220000    -4.7834370000    -0.2378800000
   12      C       0.0000000000     0.0000000000     0.0000000000
   13      C       0.1499950000     0.8504750000     1.0994460000
   14      C       0.3903270000     2.2133540000     0.7767210000
   15      H       0.0859470000     0.4872790000     2.1360880000
   16      C       0.4286650000     2.4306550000    -0.6125460000
   17      S       0.1636700000     0.9280780000    -1.4868090000
   18      C       0.5792350000     3.2845740000     1.8146090000
   19      H       0.5053230000     2.8654040000     2.8366760000
   20      H      -0.1859800000     4.0838900000     1.7262390000
   21      H       1.5716980000     3.7739370000     1.7262280000
   22      H       0.5935150000     3.3654480000    -1.1615750000
 ----------------------------------------------------------------

   10   -1179.6837335774      5.05e-07  Convergence criterion met
 Total energy in the final basis set =    -1179.6837335774
        RIMP2         total energy =     -1181.6617768257 a.u.

                    Orbital Energies (a.u.)
 --------------------------------------------------------------

 Alpha MOs
 -- Occupied --
-91.9853 -91.9843 -11.2781 -11.2725 -11.2723 -11.2652 -11.2535 -11.2508
-11.2428 -11.2415 -11.2294 -11.2290  -8.9848  -8.9839  -6.6657  -6.6652
 -6.6648  -6.6646  -6.6643  -6.6636  -1.1785  -1.1494  -1.0400  -1.0231
 -0.9968  -0.9542  -0.9131  -0.8923  -0.8010  -0.7528  -0.7312  -0.6948
 -0.6622  -0.6162  -0.5828  -0.5792  -0.5703  -0.5687  -0.5520  -0.5310
 -0.5306  -0.5199  -0.5075  -0.4916  -0.4871  -0.4651  -0.4625  -0.3481
 -0.3368  -0.3205  -0.3035

          Ground-State Mulliken Net Atomic Charges

     Atom                 Charge (a.u.)
  ----------------------------------------
      1 C                    -0.208245
      2 C                    -0.250255
      3 C                     0.052176
      4 H                     0.183875
      5 C                    -0.058180
      6 S                     0.025215
      7 C                    -0.282223
      8 H                     0.107128
      9 H                     0.110810
     10 H                     0.109137
     11 H                     0.204489
     12 C                    -0.006177
     13 C                    -0.227727
     14 C                     0.019773
     15 H                     0.185837
     16 C                    -0.237455
     17 S                     0.026730
     18 C                    -0.271315
     19 H                     0.102581
     20 H                     0.107783
     21 H                     0.108327
     22 H                     0.197716
  ----------------------------------------
  Sum of atomic charges =     0.000000

                    Cartesian Multipole Moments
 -----------------------------------------------------------------
    Charge (ESU x 10^10)
                -0.0000
    Dipole Moment (Debye)
         X      -1.1383      Y       0.2656      Z       1.7154
       Tot       2.0758
    Quadrupole Moments (Debye-Ang)
        XX     -86.0113     XY       3.9581     YY     -69.1006
        XZ      -0.9242     YZ       0.6214     ZZ     -86.5100

 Total job time:  572.81s(wall), 568.99s(cpu)
        *  Thank you very much for using Q-Chem.  Have a nice day.  *
