 Q-Chem 5.4, Q-Chem, Inc., Pleasanton, CA (2021)
 Q-Chem 5.4.0 for Intel X86 EM64T Linux

User input:
--------------------------------------------------------------
$molecule
0 1
C	0.386946	-3.866725	0.671636
C	-0.306544	-3.703963	-0.530345
C	-0.533261	-2.357056	-0.923770
H	-0.651857	-4.561092	-1.128109
C	-0.000000	-1.440664	-0.000000
S	0.772250	-2.286957	1.337557
C	-1.260680	-1.978743	-2.184153
H	-1.583283	-2.878678	-2.742769
H	-0.622180	-1.376015	-2.863347
H	-2.168011	-1.375728	-1.971094
H	0.686807	-4.783437	1.191474
C	0.000000	0.000000	0.000000
C	0.555137	0.661535	1.099446
C	1.444710	1.721658	0.776721
H	0.318072	0.379023	2.136088
C	1.586563	1.890676	-0.612546
S	0.605781	0.721904	-1.486809
C	2.143920	2.554907	1.814609
H	1.870325	2.228851	2.836676
H	1.880882	3.629742	1.726239
H	3.248098	2.482476	1.726228
H	2.196723	2.617806	-1.161575
$end

$rem
JOBTYPE		SP
EXCHANGE	HF
CORRELATION	pRIMP2
BASIS		cc-pvtz
METHOD		rimp2
AUX_BASIS	rimp2-cc-pvtz
SOLVENT_METHOD	PCM
PURECART	11111
SYMMETRY	false
MEM_TOTAL	110000
SCF_CONVERGENCE = 6
THRESH=10
$end

$solvent
dielectric 4.90
$end
--------------------------------------------------------------

             Standard Nuclear Orientation (Angstroms)
    I     Atom           X                Y                Z
 ----------------------------------------------------------------
    1      C       0.3869460000    -3.8667250000     0.6716360000
    2      C      -0.3065440000    -3.7039630000    -0.5303450000
    3      C      -0.5332610000    -2.3570560000    -0.9237700000
    4      H      -0.6518570000    -4.5610920000    -1.1281090000
    5      C       0.0000000000    -1.4406640000     0.0000000000
    6      S       0.7722500000    -2.2869570000     1.3375570000
    7      C      -1.2606800000    -1.9787430000    -2.1841530000
    8      H      -1.5832830000    -2.8786780000    -2.7427690000
    9      H      -0.6221800000    -1.3760150000    -2.8633470000
   10      H      -2.1680110000    -1.3757280000    -1.9710940000
   11      H       0.6868070000    -4.7834370000     1.1914740000
   12      C       0.0000000000     0.0000000000     0.0000000000
   13      C       0.5551370000     0.6615350000     1.0994460000
   14      C       1.4447100000     1.7216580000     0.7767210000
   15      H       0.3180720000     0.3790230000     2.1360880000
   16      C       1.5865630000     1.8906760000    -0.6125460000
   17      S       0.6057810000     0.7219040000    -1.4868090000
   18      C       2.1439200000     2.5549070000     1.8146090000
   19      H       1.8703250000     2.2288510000     2.8366760000
   20      H       1.8808820000     3.6297420000     1.7262390000
   21      H       3.2480980000     2.4824760000     1.7262280000
   22      H       2.1967230000     2.6178060000    -1.1615750000
 ----------------------------------------------------------------

   10   -1179.6565489343      5.83e-07  Convergence criterion met
 Total energy in the final basis set =    -1179.6565489343
        RIMP2         total energy =     -1181.6439410509 a.u.

                    Orbital Energies (a.u.)
 --------------------------------------------------------------

 Alpha MOs
 -- Occupied --
-91.9852 -91.9814 -11.2760 -11.2755 -11.2719 -11.2650 -11.2543 -11.2505
-11.2440 -11.2400 -11.2303 -11.2281  -8.9853  -8.9813  -6.6661  -6.6655
 -6.6649  -6.6622  -6.6616  -6.6610  -1.1848  -1.1483  -1.0438  -1.0224
 -1.0006  -0.9501  -0.9147  -0.8930  -0.7985  -0.7639  -0.7243  -0.6920
 -0.6598  -0.6179  -0.5848  -0.5802  -0.5772  -0.5701  -0.5513  -0.5347
 -0.5266  -0.5179  -0.5091  -0.4954  -0.4788  -0.4680  -0.4530  -0.3593
 -0.3453  -0.3389  -0.2698

          Ground-State Mulliken Net Atomic Charges

     Atom                 Charge (a.u.)
  ----------------------------------------
      1 C                    -0.233211
      2 C                    -0.242480
      3 C                     0.019265
      4 H                     0.182795
      5 C                     0.001614
      6 S                     0.010204
      7 C                    -0.306286
      8 H                     0.111511
      9 H                     0.110052
     10 H                     0.113971
     11 H                     0.203358
     12 C                    -0.011492
     13 C                    -0.268583
     14 C                     0.046642
     15 H                     0.190981
     16 C                    -0.227254
     17 S                     0.044666
     18 C                    -0.266543
     19 H                     0.103573
     20 H                     0.108646
     21 H                     0.108709
     22 H                     0.199861
  ----------------------------------------
  Sum of atomic charges =     0.000000

                    Cartesian Multipole Moments
 -----------------------------------------------------------------
    Charge (ESU x 10^10)
                -0.0000
    Dipole Moment (Debye)
         X       0.8908      Y       0.7746      Z       0.2041
       Tot       1.1980
    Quadrupole Moments (Debye-Ang)
        XX     -86.1592     XY       7.0801     YY     -74.6730
        XZ       3.3073     YZ       2.7820     ZZ     -81.5457

 Total job time:  565.73s(wall), 561.79s(cpu)
        *  Thank you very much for using Q-Chem.  Have a nice day.  *
