 Q-Chem 5.4, Q-Chem, Inc., Pleasanton, CA (2021)
 Q-Chem 5.4.0 for Intel X86 EM64T Linux

User input:
--------------------------------------------------------------
$molecule
0 1
C	-0.763228	-3.866725	-0.135301
C	0.603311	-3.703963	0.106073
C	1.050423	-2.357056	0.185286
H	1.283188	-4.561092	0.225783
C	-0.000000	-1.440664	-0.000000
S	-1.521021	-2.286957	-0.268187
C	2.483507	-1.978743	0.438209
H	3.118798	-2.878678	0.550153
H	2.593381	-1.376015	1.363906
H	2.903516	-1.375728	-0.393798
H	-1.354194	-4.783437	-0.239740
C	0.000000	0.000000	0.000000
C	0.555137	0.661535	1.099446
C	1.444710	1.721658	0.776721
H	0.318072	0.379023	2.136088
C	1.586563	1.890676	-0.612546
S	0.605781	0.721904	-1.486809
C	2.143920	2.554907	1.814609
H	1.870325	2.228851	2.836676
H	1.880882	3.629742	1.726239
H	3.248098	2.482476	1.726228
H	2.196723	2.617806	-1.161575
$end

$rem
JOBTYPE		SP
EXCHANGE	HF
CORRELATION	pRIMP2
BASIS		cc-pvtz
METHOD		rimp2
AUX_BASIS	rimp2-cc-pvtz
SOLVENT_METHOD	PCM
PURECART	11111
SYMMETRY	false
MEM_TOTAL	110000
SCF_CONVERGENCE = 6
THRESH=10
$end

$solvent
dielectric 4.90
$end
--------------------------------------------------------------

             Standard Nuclear Orientation (Angstroms)
    I     Atom           X                Y                Z
 ----------------------------------------------------------------
    1      C      -0.7632280000    -3.8667250000    -0.1353010000
    2      C       0.6033110000    -3.7039630000     0.1060730000
    3      C       1.0504230000    -2.3570560000     0.1852860000
    4      H       1.2831880000    -4.5610920000     0.2257830000
    5      C       0.0000000000    -1.4406640000     0.0000000000
    6      S      -1.5210210000    -2.2869570000    -0.2681870000
    7      C       2.4835070000    -1.9787430000     0.4382090000
    8      H       3.1187980000    -2.8786780000     0.5501530000
    9      H       2.5933810000    -1.3760150000     1.3639060000
   10      H       2.9035160000    -1.3757280000    -0.3937980000
   11      H      -1.3541940000    -4.7834370000    -0.2397400000
   12      C       0.0000000000     0.0000000000     0.0000000000
   13      C       0.5551370000     0.6615350000     1.0994460000
   14      C       1.4447100000     1.7216580000     0.7767210000
   15      H       0.3180720000     0.3790230000     2.1360880000
   16      C       1.5865630000     1.8906760000    -0.6125460000
   17      S       0.6057810000     0.7219040000    -1.4868090000
   18      C       2.1439200000     2.5549070000     1.8146090000
   19      H       1.8703250000     2.2288510000     2.8366760000
   20      H       1.8808820000     3.6297420000     1.7262390000
   21      H       3.2480980000     2.4824760000     1.7262280000
   22      H       2.1967230000     2.6178060000    -1.1615750000
 ----------------------------------------------------------------

   10   -1179.6558193409      7.43e-07  Convergence criterion met
 Total energy in the final basis set =    -1179.6558193409
        RIMP2         total energy =     -1181.6432218075 a.u.

                    Orbital Energies (a.u.)
 --------------------------------------------------------------

 Alpha MOs
 -- Occupied --
-91.9843 -91.9782 -11.2763 -11.2722 -11.2672 -11.2654 -11.2528 -11.2517
-11.2486 -11.2395 -11.2304 -11.2273  -8.9842  -8.9782  -6.6650  -6.6643
 -6.6638  -6.6591  -6.6585  -6.6580  -1.1820  -1.1478  -1.0422  -1.0198
 -0.9980  -0.9535  -0.9127  -0.8911  -0.7971  -0.7510  -0.7358  -0.6956
 -0.6585  -0.6175  -0.5831  -0.5805  -0.5721  -0.5683  -0.5503  -0.5328
 -0.5270  -0.5222  -0.5115  -0.4895  -0.4743  -0.4649  -0.4555  -0.3464
 -0.3389  -0.3194  -0.2996

          Ground-State Mulliken Net Atomic Charges

     Atom                 Charge (a.u.)
  ----------------------------------------
      1 C                    -0.216561
      2 C                    -0.254197
      3 C                     0.064322
      4 H                     0.183275
      5 C                    -0.024615
      6 S                     0.012870
      7 C                    -0.295115
      8 H                     0.114059
      9 H                     0.110089
     10 H                     0.113457
     11 H                     0.201881
     12 C                    -0.070424
     13 C                    -0.241179
     14 C                     0.046911
     15 H                     0.190740
     16 C                    -0.220917
     17 S                     0.034056
     18 C                    -0.268663
     19 H                     0.103317
     20 H                     0.109761
     21 H                     0.106743
     22 H                     0.200189
  ----------------------------------------
  Sum of atomic charges =     0.000000

                    Cartesian Multipole Moments
 -----------------------------------------------------------------
    Charge (ESU x 10^10)
                -0.0000
    Dipole Moment (Debye)
         X       3.1764      Y       0.6761      Z       1.8154
       Tot       3.7205
    Quadrupole Moments (Debye-Ang)
        XX     -81.9363     XY       3.4807     YY     -74.5143
        XZ       1.5823     YZ       0.3198     ZZ     -86.1820

 Total job time:  600.00s(wall), 596.39s(cpu)
        *  Thank you very much for using Q-Chem.  Have a nice day.  *
