 Q-Chem 5.4, Q-Chem, Inc., Pleasanton, CA (2021)
 Q-Chem 5.4.0 for Intel X86 EM64T Linux

User input:
--------------------------------------------------------------
$molecule
0 1
C	0.594240	-3.866725	-0.497696
C	-0.469057	-3.703963	0.393981
C	-0.817136	-2.357056	0.685571
H	-0.997777	-4.561092	0.837848
C	0.000000	-1.440664	0.000000
S	1.183137	-2.286957	-0.992782
C	-1.932056	-1.978743	1.620802
H	-2.426166	-2.878678	2.035506
H	-2.711806	-1.376015	1.109943
H	-1.564678	-1.375728	2.477350
H	1.054110	-4.783437	-0.883271
C	0.000000	0.000000	0.000000
C	0.223548	0.834165	1.099446
C	0.581748	2.170912	0.776721
H	0.128089	0.477934	2.136088
C	0.638880	2.384045	-0.612546
S	0.243934	0.910282	-1.486809
C	0.863301	3.221592	1.814609
H	0.753137	2.810458	2.836676
H	0.170663	4.084559	1.726239
H	1.894637	3.622593	1.726228
H	0.884575	3.300913	-1.161575
$end

$rem
JOBTYPE		SP
EXCHANGE	HF
CORRELATION	pRIMP2
BASIS		cc-pvtz
METHOD		rimp2
AUX_BASIS	rimp2-cc-pvtz
SOLVENT_METHOD	PCM
PURECART	11111
SYMMETRY	false
MEM_TOTAL	110000
SCF_CONVERGENCE = 6
THRESH=10
$end

$solvent
dielectric 4.90
$end
--------------------------------------------------------------

             Standard Nuclear Orientation (Angstroms)
    I     Atom           X                Y                Z
 ----------------------------------------------------------------
    1      C       0.5942400000    -3.8667250000    -0.4976960000
    2      C      -0.4690570000    -3.7039630000     0.3939810000
    3      C      -0.8171360000    -2.3570560000     0.6855710000
    4      H      -0.9977770000    -4.5610920000     0.8378480000
    5      C       0.0000000000    -1.4406640000     0.0000000000
    6      S       1.1831370000    -2.2869570000    -0.9927820000
    7      C      -1.9320560000    -1.9787430000     1.6208020000
    8      H      -2.4261660000    -2.8786780000     2.0355060000
    9      H      -2.7118060000    -1.3760150000     1.1099430000
   10      H      -1.5646780000    -1.3757280000     2.4773500000
   11      H       1.0541100000    -4.7834370000    -0.8832710000
   12      C       0.0000000000     0.0000000000     0.0000000000
   13      C       0.2235480000     0.8341650000     1.0994460000
   14      C       0.5817480000     2.1709120000     0.7767210000
   15      H       0.1280890000     0.4779340000     2.1360880000
   16      C       0.6388800000     2.3840450000    -0.6125460000
   17      S       0.2439340000     0.9102820000    -1.4868090000
   18      C       0.8633010000     3.2215920000     1.8146090000
   19      H       0.7531370000     2.8104580000     2.8366760000
   20      H       0.1706630000     4.0845590000     1.7262390000
   21      H       1.8946370000     3.6225930000     1.7262280000
   22      H       0.8845750000     3.3009130000    -1.1615750000
 ----------------------------------------------------------------

   10   -1179.6823462746      5.03e-07  Convergence criterion met
 Total energy in the final basis set =    -1179.6823462746
        RIMP2         total energy =     -1181.6618013142 a.u.

                    Orbital Energies (a.u.)
 --------------------------------------------------------------

 Alpha MOs
 -- Occupied --
-91.9863 -91.9848 -11.2800 -11.2754 -11.2706 -11.2656 -11.2520 -11.2514
-11.2430 -11.2421 -11.2295 -11.2294  -8.9859  -8.9845  -6.6668  -6.6662
 -6.6656  -6.6654  -6.6648  -6.6642  -1.1802  -1.1497  -1.0413  -1.0241
 -0.9963  -0.9557  -0.9125  -0.8932  -0.8022  -0.7531  -0.7308  -0.6966
 -0.6617  -0.6155  -0.5853  -0.5800  -0.5698  -0.5663  -0.5523  -0.5351
 -0.5300  -0.5206  -0.5074  -0.4911  -0.4858  -0.4714  -0.4580  -0.3552
 -0.3412  -0.3365  -0.2815

          Ground-State Mulliken Net Atomic Charges

     Atom                 Charge (a.u.)
  ----------------------------------------
      1 C                    -0.215626
      2 C                    -0.248922
      3 C                     0.040101
      4 H                     0.183880
      5 C                    -0.036566
      6 S                     0.021886
      7 C                    -0.286467
      8 H                     0.108879
      9 H                     0.111607
     10 H                     0.107340
     11 H                     0.204653
     12 C                    -0.004641
     13 C                    -0.222003
     14 C                     0.015560
     15 H                     0.192238
     16 C                    -0.232726
     17 S                     0.015453
     18 C                    -0.272069
     19 H                     0.102219
     20 H                     0.108189
     21 H                     0.108584
     22 H                     0.198431
  ----------------------------------------
  Sum of atomic charges =     0.000000

                    Cartesian Multipole Moments
 -----------------------------------------------------------------
    Charge (ESU x 10^10)
                -0.0000
    Dipole Moment (Debye)
         X      -0.6087      Y       0.3606      Z       2.4064
       Tot       2.5082
    Quadrupole Moments (Debye-Ang)
        XX     -88.1808     XY       4.3473     YY     -69.6800
        XZ      -2.9239     YZ      -0.4113     ZZ     -83.9464

 Total job time:  548.42s(wall), 544.72s(cpu)
        *  Thank you very much for using Q-Chem.  Have a nice day.  *
