 Q-Chem 5.4, Q-Chem, Inc., Pleasanton, CA (2021)
 Q-Chem 5.4.0 for Intel X86 EM64T Linux

User input:
--------------------------------------------------------------
$molecule
0 1
C	0.497696	-3.866725	0.594240
C	-0.393981	-3.703963	-0.469057
C	-0.685571	-2.357056	-0.817136
H	-0.837848	-4.561092	-0.997777
C	0.000000	-1.440664	0.000000
S	0.992782	-2.286957	1.183137
C	-1.620802	-1.978743	-1.932056
H	-2.035506	-2.878678	-2.426166
H	-1.109943	-1.376015	-2.711806
H	-2.477350	-1.375728	-1.564678
H	0.883271	-4.783437	1.054110
C	0.000000	0.000000	0.000000
C	0.747916	0.431772	1.099446
C	1.946425	1.123709	0.776721
H	0.428523	0.247378	2.136088
C	2.137531	1.234018	-0.612546
S	0.816154	0.471179	-1.486809
C	2.888455	1.667564	1.814609
H	2.519842	1.454746	2.836676
H	3.008896	2.767543	1.726239
H	3.901271	1.221850	1.726228
H	2.959587	1.708609	-1.161575
$end

$rem
JOBTYPE		SP
EXCHANGE	HF
CORRELATION	pRIMP2
BASIS		cc-pvtz
METHOD		rimp2
AUX_BASIS	rimp2-cc-pvtz
SOLVENT_METHOD	PCM
PURECART	11111
SYMMETRY	false
MEM_TOTAL	110000
SCF_CONVERGENCE = 6
THRESH=10
$end

$solvent
dielectric 4.90
$end
--------------------------------------------------------------

             Standard Nuclear Orientation (Angstroms)
    I     Atom           X                Y                Z
 ----------------------------------------------------------------
    1      C       0.4976960000    -3.8667250000     0.5942400000
    2      C      -0.3939810000    -3.7039630000    -0.4690570000
    3      C      -0.6855710000    -2.3570560000    -0.8171360000
    4      H      -0.8378480000    -4.5610920000    -0.9977770000
    5      C       0.0000000000    -1.4406640000     0.0000000000
    6      S       0.9927820000    -2.2869570000     1.1831370000
    7      C      -1.6208020000    -1.9787430000    -1.9320560000
    8      H      -2.0355060000    -2.8786780000    -2.4261660000
    9      H      -1.1099430000    -1.3760150000    -2.7118060000
   10      H      -2.4773500000    -1.3757280000    -1.5646780000
   11      H       0.8832710000    -4.7834370000     1.0541100000
   12      C       0.0000000000     0.0000000000     0.0000000000
   13      C       0.7479160000     0.4317720000     1.0994460000
   14      C       1.9464250000     1.1237090000     0.7767210000
   15      H       0.4285230000     0.2473780000     2.1360880000
   16      C       2.1375310000     1.2340180000    -0.6125460000
   17      S       0.8161540000     0.4711790000    -1.4868090000
   18      C       2.8884550000     1.6675640000     1.8146090000
   19      H       2.5198420000     1.4547460000     2.8366760000
   20      H       3.0088960000     2.7675430000     1.7262390000
   21      H       3.9012710000     1.2218500000     1.7262280000
   22      H       2.9595870000     1.7086090000    -1.1615750000
 ----------------------------------------------------------------

   10   -1179.6160986195      8.40e-07  Convergence criterion met
 Total energy in the final basis set =    -1179.6160986195
        RIMP2         total energy =     -1181.6121721466 a.u.

                    Orbital Energies (a.u.)
 --------------------------------------------------------------

 Alpha MOs
 -- Occupied --
-91.9867 -91.9777 -11.2932 -11.2748 -11.2644 -11.2568 -11.2566 -11.2551
-11.2368 -11.2330 -11.2320 -11.2251  -8.9871  -8.9778  -6.6679  -6.6670
 -6.6667  -6.6587  -6.6580  -6.6574  -1.1941  -1.1449  -1.0476  -1.0200
 -1.0037  -0.9466  -0.9155  -0.8904  -0.7977  -0.7642  -0.7296  -0.6880
 -0.6560  -0.6225  -0.5901  -0.5802  -0.5732  -0.5691  -0.5495  -0.5360
 -0.5302  -0.5145  -0.5061  -0.4944  -0.4698  -0.4645  -0.4531  -0.3555
 -0.3430  -0.3370  -0.2692

          Ground-State Mulliken Net Atomic Charges

     Atom                 Charge (a.u.)
  ----------------------------------------
      1 C                    -0.262818
      2 C                    -0.231535
      3 C                    -0.005329
      4 H                     0.181296
      5 C                     0.021603
      6 S                     0.004304
      7 C                    -0.297893
      8 H                     0.108437
      9 H                     0.105406
     10 H                     0.108173
     11 H                     0.199713
     12 C                    -0.134248
     13 C                    -0.148474
     14 C                    -0.003916
     15 H                     0.203205
     16 C                    -0.167860
     17 S                     0.058218
     18 C                    -0.266549
     19 H                     0.105035
     20 H                     0.110737
     21 H                     0.108074
     22 H                     0.204421
  ----------------------------------------
  Sum of atomic charges =     0.000000

                    Cartesian Multipole Moments
 -----------------------------------------------------------------
    Charge (ESU x 10^10)
                -0.0000
    Dipole Moment (Debye)
         X       2.0800      Y       1.2082      Z       0.4644
       Tot       2.4499
    Quadrupole Moments (Debye-Ang)
        XX     -80.2147     XY       7.4640     YY     -80.8336
        XZ       3.3284     YZ       2.3372     ZZ     -82.2315

 Total job time:  578.09s(wall), 574.38s(cpu)
        *  Thank you very much for using Q-Chem.  Have a nice day.  *
