 Q-Chem 5.4, Q-Chem, Inc., Pleasanton, CA (2021)
 Q-Chem 5.4.0 for Intel X86 EM64T Linux

User input:
--------------------------------------------------------------
$molecule
0 1
C	-0.264439	-3.866725	-0.728625
C	0.209794	-3.703963	0.575519
C	0.364749	-2.357056	1.002336
H	0.446060	-4.561092	1.224165
C	-0.000000	-1.440664	-0.000000
S	-0.528253	-2.286957	-1.451336
C	0.862253	-1.978743	2.369885
H	1.082953	-2.878678	2.976034
H	0.115513	-1.376015	2.927887
H	1.792797	-1.375728	2.317620
H	-0.469476	-4.783437	-1.292636
C	0.000000	0.000000	0.000000
C	0.075300	0.860311	1.099446
C	0.195935	2.238951	0.776721
H	0.043151	0.492916	2.136088
C	0.215188	2.458766	-0.612546
S	0.082160	0.938811	-1.486809
C	0.290762	3.322559	1.814609
H	0.253664	2.898542	2.836676
H	-0.541206	4.052140	1.726239
H	1.236797	3.896558	1.726228
H	0.297938	3.404370	-1.161575
$end

$rem
JOBTYPE		SP
EXCHANGE	HF
CORRELATION	pRIMP2
BASIS		cc-pvtz
METHOD		rimp2
AUX_BASIS	rimp2-cc-pvtz
SOLVENT_METHOD	PCM
PURECART	11111
SYMMETRY	false
MEM_TOTAL	110000
SCF_CONVERGENCE = 6
THRESH=10
$end

$solvent
dielectric 4.90
$end
--------------------------------------------------------------

             Standard Nuclear Orientation (Angstroms)
    I     Atom           X                Y                Z
 ----------------------------------------------------------------
    1      C      -0.2644390000    -3.8667250000    -0.7286250000
    2      C       0.2097940000    -3.7039630000     0.5755190000
    3      C       0.3647490000    -2.3570560000     1.0023360000
    4      H       0.4460600000    -4.5610920000     1.2241650000
    5      C       0.0000000000    -1.4406640000     0.0000000000
    6      S      -0.5282530000    -2.2869570000    -1.4513360000
    7      C       0.8622530000    -1.9787430000     2.3698850000
    8      H       1.0829530000    -2.8786780000     2.9760340000
    9      H       0.1155130000    -1.3760150000     2.9278870000
   10      H       1.7927970000    -1.3757280000     2.3176200000
   11      H      -0.4694760000    -4.7834370000    -1.2926360000
   12      C       0.0000000000     0.0000000000     0.0000000000
   13      C       0.0753000000     0.8603110000     1.0994460000
   14      C       0.1959350000     2.2389510000     0.7767210000
   15      H       0.0431510000     0.4929160000     2.1360880000
   16      C       0.2151880000     2.4587660000    -0.6125460000
   17      S       0.0821600000     0.9388110000    -1.4868090000
   18      C       0.2907620000     3.3225590000     1.8146090000
   19      H       0.2536640000     2.8985420000     2.8366760000
   20      H      -0.5412060000     4.0521400000     1.7262390000
   21      H       1.2367970000     3.8965580000     1.7262280000
   22      H       0.2979380000     3.4043700000    -1.1615750000
 ----------------------------------------------------------------

   10   -1179.6854394783      5.25e-07  Convergence criterion met
 Total energy in the final basis set =    -1179.6854394783
        RIMP2         total energy =     -1181.6653587958 a.u.

                    Orbital Energies (a.u.)
 --------------------------------------------------------------

 Alpha MOs
 -- Occupied --
-91.9859 -91.9852 -11.2834 -11.2783 -11.2730 -11.2639 -11.2544 -11.2522
-11.2440 -11.2399 -11.2315 -11.2294  -8.9856  -8.9851  -6.6666  -6.6661
 -6.6660  -6.6655  -6.6654  -6.6649  -1.1814  -1.1504  -1.0419  -1.0274
 -0.9960  -0.9564  -0.9145  -0.8945  -0.8033  -0.7568  -0.7276  -0.7004
 -0.6624  -0.6144  -0.5901  -0.5819  -0.5703  -0.5639  -0.5522  -0.5395
 -0.5297  -0.5235  -0.5049  -0.4912  -0.4884  -0.4761  -0.4526  -0.3676
 -0.3465  -0.3385  -0.2708

          Ground-State Mulliken Net Atomic Charges

     Atom                 Charge (a.u.)
  ----------------------------------------
      1 C                    -0.213153
      2 C                    -0.253051
      3 C                     0.071213
      4 H                     0.184175
      5 C                    -0.046468
      6 S                     0.011251
      7 C                    -0.310403
      8 H                     0.117073
      9 H                     0.106656
     10 H                     0.118249
     11 H                     0.207136
     12 C                     0.028962
     13 C                    -0.253987
     14 C                     0.029720
     15 H                     0.195399
     16 C                    -0.253461
     17 S                     0.013865
     18 C                    -0.271653
     19 H                     0.101630
     20 H                     0.108756
     21 H                     0.108881
     22 H                     0.199211
  ----------------------------------------
  Sum of atomic charges =     0.000000

                    Cartesian Multipole Moments
 -----------------------------------------------------------------
    Charge (ESU x 10^10)
                -0.0000
    Dipole Moment (Debye)
         X       0.6813      Y       0.1179      Z       2.8544
       Tot       2.9369
    Quadrupole Moments (Debye-Ang)
        XX     -91.9016     XY       0.2215     YY     -68.3076
        XZ       2.2544     YZ      -1.0112     ZZ     -80.8553

 Total job time:  563.67s(wall), 558.90s(cpu)
        *  Thank you very much for using Q-Chem.  Have a nice day.  *
