 Q-Chem 5.4, Q-Chem, Inc., Pleasanton, CA (2021)
 Q-Chem 5.4.0 for Intel X86 EM64T Linux

User input:
--------------------------------------------------------------
$molecule
0 1
C	0.388181	-3.866725	-0.670924
C	-0.306020	-3.703963	0.530648
C	-0.533378	-2.357056	0.923703
H	-0.651043	-4.561092	1.128579
C	-0.000000	-1.440664	-0.000000
S	0.772234	-2.286957	-1.337567
C	-1.261192	-1.978743	2.183857
H	-1.583666	-2.878678	2.742548
H	-2.168641	-1.376015	1.970497
H	-0.623012	-1.375728	2.863099
H	0.688443	-4.783437	-1.190530
C	0.000000	0.000000	0.000000
C	0.365003	0.782674	1.099446
C	0.949885	2.036912	0.776721
H	0.209135	0.448431	2.136088
C	1.043159	2.236886	-0.612546
S	0.398297	0.854094	-1.486809
C	1.409609	3.022738	1.814609
H	1.229726	2.636980	2.836676
H	0.877346	3.992870	1.726239
H	2.494910	3.238558	1.726228
H	1.444334	3.097160	-1.161575
$end

$rem
JOBTYPE		SP
EXCHANGE	HF
CORRELATION	pRIMP2
BASIS		cc-pvtz
METHOD		rimp2
AUX_BASIS	rimp2-cc-pvtz
SOLVENT_METHOD	PCM
PURECART	11111
SYMMETRY	false
MEM_TOTAL	110000
SCF_CONVERGENCE = 6
THRESH=10
$end

$solvent
dielectric 4.90
$end
--------------------------------------------------------------

             Standard Nuclear Orientation (Angstroms)
    I     Atom           X                Y                Z
 ----------------------------------------------------------------
    1      C       0.3881810000    -3.8667250000    -0.6709240000
    2      C      -0.3060200000    -3.7039630000     0.5306480000
    3      C      -0.5333780000    -2.3570560000     0.9237030000
    4      H      -0.6510430000    -4.5610920000     1.1285790000
    5      C       0.0000000000    -1.4406640000     0.0000000000
    6      S       0.7722340000    -2.2869570000    -1.3375670000
    7      C      -1.2611920000    -1.9787430000     2.1838570000
    8      H      -1.5836660000    -2.8786780000     2.7425480000
    9      H      -2.1686410000    -1.3760150000     1.9704970000
   10      H      -0.6230120000    -1.3757280000     2.8630990000
   11      H       0.6884430000    -4.7834370000    -1.1905300000
   12      C       0.0000000000     0.0000000000     0.0000000000
   13      C       0.3650030000     0.7826740000     1.0994460000
   14      C       0.9498850000     2.0369120000     0.7767210000
   15      H       0.2091350000     0.4484310000     2.1360880000
   16      C       1.0431590000     2.2368860000    -0.6125460000
   17      S       0.3982970000     0.8540940000    -1.4868090000
   18      C       1.4096090000     3.0227380000     1.8146090000
   19      H       1.2297260000     2.6369800000     2.8366760000
   20      H       0.8773460000     3.9928700000     1.7262390000
   21      H       2.4949100000     3.2385580000     1.7262280000
   22      H       1.4443340000     3.0971600000    -1.1615750000
 ----------------------------------------------------------------

   10   -1179.6737272976      4.91e-07  Convergence criterion met
 Total energy in the final basis set =    -1179.6737272976
        RIMP2         total energy =     -1181.6563752526 a.u.

                    Orbital Energies (a.u.)
 --------------------------------------------------------------

 Alpha MOs
 -- Occupied --
-91.9864 -91.9839 -11.2797 -11.2776 -11.2689 -11.2675 -11.2534 -11.2481
-11.2458 -11.2419 -11.2300 -11.2298  -8.9862  -8.9837  -6.6672  -6.6666
 -6.6660  -6.6646  -6.6640  -6.6633  -1.1824  -1.1496  -1.0429  -1.0247
 -0.9963  -0.9565  -0.9123  -0.8941  -0.8027  -0.7545  -0.7297  -0.6986
 -0.6606  -0.6149  -0.5892  -0.5812  -0.5703  -0.5639  -0.5521  -0.5385
 -0.5309  -0.5211  -0.5068  -0.4906  -0.4835  -0.4759  -0.4524  -0.3657
 -0.3434  -0.3378  -0.2712

          Ground-State Mulliken Net Atomic Charges

     Atom                 Charge (a.u.)
  ----------------------------------------
      1 C                    -0.227088
      2 C                    -0.245812
      3 C                     0.036918
      4 H                     0.183208
      5 C                    -0.022925
      6 S                     0.016035
      7 C                    -0.303236
      8 H                     0.112550
      9 H                     0.114244
     10 H                     0.104546
     11 H                     0.204909
     12 C                    -0.003373
     13 C                    -0.208291
     14 C                     0.012965
     15 H                     0.193681
     16 C                    -0.225094
     17 S                     0.008213
     18 C                    -0.270953
     19 H                     0.101888
     20 H                     0.108748
     21 H                     0.108482
     22 H                     0.200385
  ----------------------------------------
  Sum of atomic charges =     0.000000

                    Cartesian Multipole Moments
 -----------------------------------------------------------------
    Charge (ESU x 10^10)
                -0.0000
    Dipole Moment (Debye)
         X       0.2053      Y       0.5950      Z       2.7186
       Tot       2.7905
    Quadrupole Moments (Debye-Ang)
        XX     -89.0640     XY       5.4418     YY     -71.3976
        XZ      -2.3616     YZ      -1.0092     ZZ     -81.7125

 Total job time:  572.23s(wall), 568.48s(cpu)
        *  Thank you very much for using Q-Chem.  Have a nice day.  *
