 Q-Chem 5.4, Q-Chem, Inc., Pleasanton, CA (2021)
 Q-Chem 5.4.0 for Intel X86 EM64T Linux

User input:
--------------------------------------------------------------
$molecule
0 1
C	-0.388181	-3.866725	0.670924
C	0.306020	-3.703963	-0.530648
C	0.533378	-2.357056	-0.923703
H	0.651043	-4.561092	-1.128579
C	-0.000000	-1.440664	-0.000000
S	-0.772234	-2.286957	1.337567
C	1.261192	-1.978743	-2.183857
H	1.583666	-2.878678	-2.742548
H	2.168641	-1.376015	-1.970497
H	0.623012	-1.375728	-2.863099
H	-0.688443	-4.783437	1.190530
C	0.000000	0.000000	0.000000
C	0.365003	0.782674	1.099446
C	0.949885	2.036912	0.776721
H	0.209135	0.448431	2.136088
C	1.043159	2.236886	-0.612546
S	0.398297	0.854094	-1.486809
C	1.409609	3.022738	1.814609
H	1.229726	2.636980	2.836676
H	0.877346	3.992870	1.726239
H	2.494910	3.238558	1.726228
H	1.444334	3.097160	-1.161575
$end

$rem
JOBTYPE		SP
EXCHANGE	HF
CORRELATION	pRIMP2
BASIS		cc-pvtz
METHOD		rimp2
AUX_BASIS	rimp2-cc-pvtz
SOLVENT_METHOD	PCM
PURECART	11111
SYMMETRY	false
MEM_TOTAL	110000
SCF_CONVERGENCE = 6
THRESH=10
$end

$solvent
dielectric 4.90
$end
--------------------------------------------------------------

             Standard Nuclear Orientation (Angstroms)
    I     Atom           X                Y                Z
 ----------------------------------------------------------------
    1      C      -0.3881810000    -3.8667250000     0.6709240000
    2      C       0.3060200000    -3.7039630000    -0.5306480000
    3      C       0.5333780000    -2.3570560000    -0.9237030000
    4      H       0.6510430000    -4.5610920000    -1.1285790000
    5      C       0.0000000000    -1.4406640000     0.0000000000
    6      S      -0.7722340000    -2.2869570000     1.3375670000
    7      C       1.2611920000    -1.9787430000    -2.1838570000
    8      H       1.5836660000    -2.8786780000    -2.7425480000
    9      H       2.1686410000    -1.3760150000    -1.9704970000
   10      H       0.6230120000    -1.3757280000    -2.8630990000
   11      H      -0.6884430000    -4.7834370000     1.1905300000
   12      C       0.0000000000     0.0000000000     0.0000000000
   13      C       0.3650030000     0.7826740000     1.0994460000
   14      C       0.9498850000     2.0369120000     0.7767210000
   15      H       0.2091350000     0.4484310000     2.1360880000
   16      C       1.0431590000     2.2368860000    -0.6125460000
   17      S       0.3982970000     0.8540940000    -1.4868090000
   18      C       1.4096090000     3.0227380000     1.8146090000
   19      H       1.2297260000     2.6369800000     2.8366760000
   20      H       0.8773460000     3.9928700000     1.7262390000
   21      H       2.4949100000     3.2385580000     1.7262280000
   22      H       1.4443340000     3.0971600000    -1.1615750000
 ----------------------------------------------------------------

   10   -1179.6698607722      5.30e-07  Convergence criterion met
 Total energy in the final basis set =    -1179.6698607722
        RIMP2         total energy =     -1181.6543124061 a.u.

                    Orbital Energies (a.u.)
 --------------------------------------------------------------

 Alpha MOs
 -- Occupied --
-91.9837 -91.9824 -11.2790 -11.2778 -11.2690 -11.2672 -11.2518 -11.2495
-11.2446 -11.2420 -11.2292 -11.2268  -8.9838  -8.9823  -6.6646  -6.6641
 -6.6635  -6.6633  -6.6627  -6.6621  -1.1817  -1.1490  -1.0425  -1.0230
 -0.9984  -0.9526  -0.9129  -0.8945  -0.7984  -0.7630  -0.7226  -0.6957
 -0.6607  -0.6161  -0.5835  -0.5794  -0.5774  -0.5695  -0.5516  -0.5332
 -0.5260  -0.5201  -0.5118  -0.4952  -0.4822  -0.4652  -0.4514  -0.3655
 -0.3414  -0.3373  -0.2709

          Ground-State Mulliken Net Atomic Charges

     Atom                 Charge (a.u.)
  ----------------------------------------
      1 C                    -0.217100
      2 C                    -0.251417
      3 C                     0.045555
      4 H                     0.184498
      5 C                    -0.032861
      6 S                     0.009039
      7 C                    -0.302233
      8 H                     0.109368
      9 H                     0.120556
     10 H                     0.109700
     11 H                     0.204793
     12 C                     0.004671
     13 C                    -0.221707
     14 C                     0.015687
     15 H                     0.183597
     16 C                    -0.229628
     17 S                     0.019122
     18 C                    -0.269552
     19 H                     0.103012
     20 H                     0.108323
     21 H                     0.107524
     22 H                     0.199052
  ----------------------------------------
  Sum of atomic charges =     0.000000

                    Cartesian Multipole Moments
 -----------------------------------------------------------------
    Charge (ESU x 10^10)
                -0.0000
    Dipole Moment (Debye)
         X       1.7024      Y       0.4701      Z       0.0306
       Tot       1.7664
    Quadrupole Moments (Debye-Ang)
        XX     -89.0713     XY       3.1642     YY     -71.8093
        XZ      -2.4942     YZ       2.7516     ZZ     -81.5595

 Total job time:  561.78s(wall), 559.03s(cpu)
        *  Thank you very much for using Q-Chem.  Have a nice day.  *
