 Q-Chem 5.4, Q-Chem, Inc., Pleasanton, CA (2021)
 Q-Chem 5.4.0 for Intel X86 EM64T Linux

User input:
--------------------------------------------------------------
$molecule
0 1
C	-0.594240	-3.866725	0.497696
C	0.469057	-3.703963	-0.393981
C	0.817136	-2.357056	-0.685571
H	0.997777	-4.561092	-0.837848
C	0.000000	-1.440664	0.000000
S	-1.183137	-2.286957	0.992782
C	1.932056	-1.978743	-1.620802
H	2.426166	-2.878678	-2.035506
H	2.711806	-1.376015	-1.109943
H	1.564678	-1.375728	-2.477350
H	-1.054110	-4.783437	0.883271
C	0.000000	0.000000	0.000000
C	0.223548	0.834165	1.099446
C	0.581748	2.170912	0.776721
H	0.128089	0.477934	2.136088
C	0.638880	2.384045	-0.612546
S	0.243934	0.910282	-1.486809
C	0.863301	3.221592	1.814609
H	0.753137	2.810458	2.836676
H	0.170663	4.084559	1.726239
H	1.894637	3.622593	1.726228
H	0.884575	3.300913	-1.161575
$end

$rem
JOBTYPE		SP
EXCHANGE	HF
CORRELATION	pRIMP2
BASIS		cc-pvtz
METHOD		rimp2
AUX_BASIS	rimp2-cc-pvtz
SOLVENT_METHOD	PCM
PURECART	11111
SYMMETRY	false
MEM_TOTAL	110000
SCF_CONVERGENCE = 6
THRESH=10
$end

$solvent
dielectric 4.90
$end
--------------------------------------------------------------

             Standard Nuclear Orientation (Angstroms)
    I     Atom           X                Y                Z
 ----------------------------------------------------------------
    1      C      -0.5942400000    -3.8667250000     0.4976960000
    2      C       0.4690570000    -3.7039630000    -0.3939810000
    3      C       0.8171360000    -2.3570560000    -0.6855710000
    4      H       0.9977770000    -4.5610920000    -0.8378480000
    5      C       0.0000000000    -1.4406640000     0.0000000000
    6      S      -1.1831370000    -2.2869570000     0.9927820000
    7      C       1.9320560000    -1.9787430000    -1.6208020000
    8      H       2.4261660000    -2.8786780000    -2.0355060000
    9      H       2.7118060000    -1.3760150000    -1.1099430000
   10      H       1.5646780000    -1.3757280000    -2.4773500000
   11      H      -1.0541100000    -4.7834370000     0.8832710000
   12      C       0.0000000000     0.0000000000     0.0000000000
   13      C       0.2235480000     0.8341650000     1.0994460000
   14      C       0.5817480000     2.1709120000     0.7767210000
   15      H       0.1280890000     0.4779340000     2.1360880000
   16      C       0.6388800000     2.3840450000    -0.6125460000
   17      S       0.2439340000     0.9102820000    -1.4868090000
   18      C       0.8633010000     3.2215920000     1.8146090000
   19      H       0.7531370000     2.8104580000     2.8366760000
   20      H       0.1706630000     4.0845590000     1.7262390000
   21      H       1.8946370000     3.6225930000     1.7262280000
   22      H       0.8845750000     3.3009130000    -1.1615750000
 ----------------------------------------------------------------

   10   -1179.6807453105      5.00e-07  Convergence criterion met
 Total energy in the final basis set =    -1179.6807453105
        RIMP2         total energy =     -1181.6613546749 a.u.

                    Orbital Energies (a.u.)
 --------------------------------------------------------------

 Alpha MOs
 -- Occupied --
-91.9849 -91.9841 -11.2797 -11.2757 -11.2707 -11.2658 -11.2519 -11.2515
-11.2434 -11.2422 -11.2291 -11.2276  -8.9846  -8.9838  -6.6655  -6.6649
 -6.6647  -6.6643  -6.6642  -6.6636  -1.1799  -1.1495  -1.0413  -1.0225
 -0.9984  -0.9533  -0.9135  -0.8930  -0.7997  -0.7599  -0.7252  -0.6952
 -0.6616  -0.6162  -0.5825  -0.5779  -0.5754  -0.5697  -0.5518  -0.5327
 -0.5273  -0.5195  -0.5104  -0.4941  -0.4848  -0.4663  -0.4567  -0.3541
 -0.3419  -0.3358  -0.2815

          Ground-State Mulliken Net Atomic Charges

     Atom                 Charge (a.u.)
  ----------------------------------------
      1 C                    -0.216757
      2 C                    -0.250169
      3 C                     0.042483
      4 H                     0.184377
      5 C                    -0.027439
      6 S                     0.021078
      7 C                    -0.293582
      8 H                     0.109332
      9 H                     0.116305
     10 H                     0.112925
     11 H                     0.204470
     12 C                    -0.011689
     13 C                    -0.231960
     14 C                     0.018288
     15 H                     0.187827
     16 C                    -0.233271
     17 S                     0.020916
     18 C                    -0.270417
     19 H                     0.102903
     20 H                     0.108247
     21 H                     0.107875
     22 H                     0.198258
  ----------------------------------------
  Sum of atomic charges =     0.000000

                    Cartesian Multipole Moments
 -----------------------------------------------------------------
    Charge (ESU x 10^10)
                -0.0000
    Dipole Moment (Debye)
         X       1.6915      Y       0.3702      Z       0.4280
       Tot       1.7836
    Quadrupole Moments (Debye-Ang)
        XX     -88.2239     XY       1.1590     YY     -69.9503
        XZ      -3.0070     YZ       2.3457     ZZ     -83.8508

 Total job time:  551.57s(wall), 548.08s(cpu)
        *  Thank you very much for using Q-Chem.  Have a nice day.  *
