 Q-Chem 5.4, Q-Chem, Inc., Pleasanton, CA (2021)
 Q-Chem 5.4.0 for Intel X86 EM64T Linux

User input:
--------------------------------------------------------------
$molecule
0 1
C	0.133897	-3.866725	0.763475
C	-0.106669	-3.703963	-0.603206
C	-0.185154	-2.357056	-1.050446
H	-0.226709	-4.561092	-1.283024
C	0.000000	-1.440664	0.000000
S	0.268206	-2.286957	1.521018
C	-0.437628	-1.978743	-2.483610
H	-0.549717	-2.878678	-3.118875
H	0.394664	-1.376015	-2.903464
H	-1.363110	-1.375728	-2.593726
H	0.237880	-4.783437	1.354522
C	0.000000	0.000000	0.000000
C	0.747916	0.431772	1.099446
C	1.946425	1.123709	0.776721
H	0.428523	0.247378	2.136088
C	2.137531	1.234018	-0.612546
S	0.816154	0.471179	-1.486809
C	2.888455	1.667564	1.814609
H	2.519842	1.454746	2.836676
H	3.008896	2.767543	1.726239
H	3.901271	1.221850	1.726228
H	2.959587	1.708609	-1.161575
$end

$rem
JOBTYPE		SP
EXCHANGE	HF
CORRELATION	pRIMP2
BASIS		cc-pvtz
METHOD		rimp2
AUX_BASIS	rimp2-cc-pvtz
SOLVENT_METHOD	PCM
PURECART	11111
SYMMETRY	false
MEM_TOTAL	110000
SCF_CONVERGENCE = 6
THRESH=10
$end

$solvent
dielectric 4.90
$end
--------------------------------------------------------------

             Standard Nuclear Orientation (Angstroms)
    I     Atom           X                Y                Z
 ----------------------------------------------------------------
    1      C       0.1338970000    -3.8667250000     0.7634750000
    2      C      -0.1066690000    -3.7039630000    -0.6032060000
    3      C      -0.1851540000    -2.3570560000    -1.0504460000
    4      H      -0.2267090000    -4.5610920000    -1.2830240000
    5      C       0.0000000000    -1.4406640000     0.0000000000
    6      S       0.2682060000    -2.2869570000     1.5210180000
    7      C      -0.4376280000    -1.9787430000    -2.4836100000
    8      H      -0.5497170000    -2.8786780000    -3.1188750000
    9      H       0.3946640000    -1.3760150000    -2.9034640000
   10      H      -1.3631100000    -1.3757280000    -2.5937260000
   11      H       0.2378800000    -4.7834370000     1.3545220000
   12      C       0.0000000000     0.0000000000     0.0000000000
   13      C       0.7479160000     0.4317720000     1.0994460000
   14      C       1.9464250000     1.1237090000     0.7767210000
   15      H       0.4285230000     0.2473780000     2.1360880000
   16      C       2.1375310000     1.2340180000    -0.6125460000
   17      S       0.8161540000     0.4711790000    -1.4868090000
   18      C       2.8884550000     1.6675640000     1.8146090000
   19      H       2.5198420000     1.4547460000     2.8366760000
   20      H       3.0088960000     2.7675430000     1.7262390000
   21      H       3.9012710000     1.2218500000     1.7262280000
   22      H       2.9595870000     1.7086090000    -1.1615750000
 ----------------------------------------------------------------

   11   -1179.6055626890      6.88e-07  Convergence criterion met
 Total energy in the final basis set =    -1179.6055626890
        RIMP2         total energy =     -1181.6040384570 a.u.

                    Orbital Energies (a.u.)
 --------------------------------------------------------------

 Alpha MOs
 -- Occupied --
-91.9844 -91.9745 -11.2924 -11.2796 -11.2671 -11.2577 -11.2565 -11.2548
-11.2373 -11.2320 -11.2319 -11.2220  -8.9855  -8.9750  -6.6661  -6.6653
 -6.6649  -6.6560  -6.6554  -6.6547  -1.1952  -1.1448  -1.0485  -1.0237
 -1.0011  -0.9475  -0.9135  -0.8936  -0.7967  -0.7692  -0.7253  -0.6907
 -0.6553  -0.6218  -0.5921  -0.5844  -0.5761  -0.5700  -0.5508  -0.5352
 -0.5287  -0.5157  -0.5106  -0.4948  -0.4688  -0.4612  -0.4428  -0.3671
 -0.3473  -0.3325  -0.2608

          Ground-State Mulliken Net Atomic Charges

     Atom                 Charge (a.u.)
  ----------------------------------------
      1 C                    -0.254693
      2 C                    -0.241310
      3 C                     0.009881
      4 H                     0.181489
      5 C                     0.004089
      6 S                    -0.022463
      7 C                    -0.309274
      8 H                     0.107304
      9 H                     0.111238
     10 H                     0.112197
     11 H                     0.199885
     12 C                    -0.107229
     13 C                    -0.123032
     14 C                    -0.006173
     15 H                     0.192640
     16 C                    -0.174703
     17 S                     0.060367
     18 C                    -0.264544
     19 H                     0.104293
     20 H                     0.108602
     21 H                     0.107276
     22 H                     0.204161
  ----------------------------------------
  Sum of atomic charges =     0.000000

                    Cartesian Multipole Moments
 -----------------------------------------------------------------
    Charge (ESU x 10^10)
                -0.0000
    Dipole Moment (Debye)
         X       2.8061      Y       1.4094      Z       0.0026
       Tot       3.1402
    Quadrupole Moments (Debye-Ang)
        XX     -82.4711     XY       6.1530     YY     -81.8037
        XZ       1.2058     YZ       3.0893     ZZ     -79.9088

 Total job time:  645.62s(wall), 641.29s(cpu)
        *  Thank you very much for using Q-Chem.  Have a nice day.  *
