 Q-Chem 5.4, Q-Chem, Inc., Pleasanton, CA (2021)
 Q-Chem 5.4.0 for Intel X86 EM64T Linux

User input:
--------------------------------------------------------------
$molecule
0 1
C	-0.497696	-3.866725	-0.594240
C	0.393981	-3.703963	0.469057
C	0.685571	-2.357056	0.817136
H	0.837848	-4.561092	0.997777
C	0.000000	-1.440664	0.000000
S	-0.992782	-2.286957	-1.183137
C	1.620802	-1.978743	1.932056
H	2.035506	-2.878678	2.426166
H	1.109943	-1.376015	2.711806
H	2.477350	-1.375728	1.564678
H	-0.883271	-4.783437	-1.054110
C	0.000000	0.000000	0.000000
C	0.431829	0.747884	1.099446
C	1.123799	1.946373	0.776721
H	0.247423	0.428497	2.136088
C	1.234147	2.137457	-0.612546
S	0.471221	0.816130	-1.486809
C	1.667694	2.888380	1.814609
H	1.454874	2.519768	2.836676
H	1.222009	3.901210	1.726239
H	2.767675	3.008788	1.726228
H	1.708773	2.959493	-1.161575
$end

$rem
JOBTYPE		SP
EXCHANGE	HF
CORRELATION	pRIMP2
BASIS		cc-pvtz
METHOD		rimp2
AUX_BASIS	rimp2-cc-pvtz
SOLVENT_METHOD	PCM
PURECART	11111
SYMMETRY	false
MEM_TOTAL	110000
SCF_CONVERGENCE = 6
THRESH=10
$end

$solvent
dielectric 4.90
$end
--------------------------------------------------------------

             Standard Nuclear Orientation (Angstroms)
    I     Atom           X                Y                Z
 ----------------------------------------------------------------
    1      C      -0.4976960000    -3.8667250000    -0.5942400000
    2      C       0.3939810000    -3.7039630000     0.4690570000
    3      C       0.6855710000    -2.3570560000     0.8171360000
    4      H       0.8378480000    -4.5610920000     0.9977770000
    5      C       0.0000000000    -1.4406640000     0.0000000000
    6      S      -0.9927820000    -2.2869570000    -1.1831370000
    7      C       1.6208020000    -1.9787430000     1.9320560000
    8      H       2.0355060000    -2.8786780000     2.4261660000
    9      H       1.1099430000    -1.3760150000     2.7118060000
   10      H       2.4773500000    -1.3757280000     1.5646780000
   11      H      -0.8832710000    -4.7834370000    -1.0541100000
   12      C       0.0000000000     0.0000000000     0.0000000000
   13      C       0.4318290000     0.7478840000     1.0994460000
   14      C       1.1237990000     1.9463730000     0.7767210000
   15      H       0.2474230000     0.4284970000     2.1360880000
   16      C       1.2341470000     2.1374570000    -0.6125460000
   17      S       0.4712210000     0.8161300000    -1.4868090000
   18      C       1.6676940000     2.8883800000     1.8146090000
   19      H       1.4548740000     2.5197680000     2.8366760000
   20      H       1.2220090000     3.9012100000     1.7262390000
   21      H       2.7676750000     3.0087880000     1.7262280000
   22      H       1.7087730000     2.9594930000    -1.1615750000
 ----------------------------------------------------------------

   10   -1179.6682704107      5.64e-07  Convergence criterion met
 Total energy in the final basis set =    -1179.6682704107
        RIMP2         total energy =     -1181.6525101549 a.u.

                    Orbital Energies (a.u.)
 --------------------------------------------------------------

 Alpha MOs
 -- Occupied --
-91.9845 -91.9810 -11.2759 -11.2741 -11.2704 -11.2700 -11.2525 -11.2510
-11.2458 -11.2418 -11.2300 -11.2288  -8.9844  -8.9811  -6.6653  -6.6647
 -6.6641  -6.6621  -6.6615  -6.6609  -1.1818  -1.1492  -1.0421  -1.0243
 -0.9962  -0.9549  -0.9133  -0.8932  -0.7998  -0.7544  -0.7309  -0.6994
 -0.6597  -0.6154  -0.5890  -0.5808  -0.5711  -0.5631  -0.5508  -0.5379
 -0.5279  -0.5233  -0.5074  -0.4909  -0.4802  -0.4694  -0.4557  -0.3549
 -0.3433  -0.3398  -0.2761

          Ground-State Mulliken Net Atomic Charges

     Atom                 Charge (a.u.)
  ----------------------------------------
      1 C                    -0.213357
      2 C                    -0.251102
      3 C                     0.057526
      4 H                     0.183991
      5 C                    -0.025441
      6 S                     0.010456
      7 C                    -0.297842
      8 H                     0.114915
      9 H                     0.105097
     10 H                     0.117314
     11 H                     0.204846
     12 C                    -0.011818
     13 C                    -0.284274
     14 C                     0.053124
     15 H                     0.193383
     16 C                    -0.238421
     17 S                     0.031898
     18 C                    -0.269092
     19 H                     0.102373
     20 H                     0.109218
     21 H                     0.108134
     22 H                     0.199073
  ----------------------------------------
  Sum of atomic charges =     0.000000

                    Cartesian Multipole Moments
 -----------------------------------------------------------------
    Charge (ESU x 10^10)
                -0.0000
    Dipole Moment (Debye)
         X       2.1182      Y       0.4596      Z       2.7105
       Tot       3.4705
    Quadrupole Moments (Debye-Ang)
        XX     -87.1936     XY       3.5433     YY     -71.8886
        XZ       3.6108     YZ      -0.8503     ZZ     -82.8917

 Total job time:  566.56s(wall), 563.91s(cpu)
        *  Thank you very much for using Q-Chem.  Have a nice day.  *
