 Q-Chem 5.4, Q-Chem, Inc., Pleasanton, CA (2021)
 Q-Chem 5.4.0 for Intel X86 EM64T Linux

User input:
--------------------------------------------------------------
$molecule
0 1
C	0.763475	-3.866725	-0.133897
C	-0.603206	-3.703963	0.106669
C	-1.050446	-2.357056	0.185154
H	-1.283024	-4.561092	0.226709
C	-0.000000	-1.440664	-0.000000
S	1.521018	-2.286957	-0.268206
C	-2.483610	-1.978743	0.437628
H	-3.118875	-2.878678	0.549717
H	-2.903464	-1.376015	-0.394664
H	-2.593726	-1.375728	1.363110
H	1.354522	-4.783437	-0.237880
C	0.000000	0.000000	0.000000
C	0.365003	0.782674	1.099446
C	0.949885	2.036912	0.776721
H	0.209135	0.448431	2.136088
C	1.043159	2.236886	-0.612546
S	0.398297	0.854094	-1.486809
C	1.409609	3.022738	1.814609
H	1.229726	2.636980	2.836676
H	0.877346	3.992870	1.726239
H	2.494910	3.238558	1.726228
H	1.444334	3.097160	-1.161575
$end

$rem
JOBTYPE		SP
EXCHANGE	HF
CORRELATION	pRIMP2
BASIS		cc-pvtz
METHOD		rimp2
AUX_BASIS	rimp2-cc-pvtz
SOLVENT_METHOD	PCM
PURECART	11111
SYMMETRY	false
MEM_TOTAL	110000
SCF_CONVERGENCE = 6
THRESH=10
$end

$solvent
dielectric 4.90
$end
--------------------------------------------------------------

             Standard Nuclear Orientation (Angstroms)
    I     Atom           X                Y                Z
 ----------------------------------------------------------------
    1      C       0.7634750000    -3.8667250000    -0.1338970000
    2      C      -0.6032060000    -3.7039630000     0.1066690000
    3      C      -1.0504460000    -2.3570560000     0.1851540000
    4      H      -1.2830240000    -4.5610920000     0.2267090000
    5      C       0.0000000000    -1.4406640000     0.0000000000
    6      S       1.5210180000    -2.2869570000    -0.2682060000
    7      C      -2.4836100000    -1.9787430000     0.4376280000
    8      H      -3.1188750000    -2.8786780000     0.5497170000
    9      H      -2.9034640000    -1.3760150000    -0.3946640000
   10      H      -2.5937260000    -1.3757280000     1.3631100000
   11      H       1.3545220000    -4.7834370000    -0.2378800000
   12      C       0.0000000000     0.0000000000     0.0000000000
   13      C       0.3650030000     0.7826740000     1.0994460000
   14      C       0.9498850000     2.0369120000     0.7767210000
   15      H       0.2091350000     0.4484310000     2.1360880000
   16      C       1.0431590000     2.2368860000    -0.6125460000
   17      S       0.3982970000     0.8540940000    -1.4868090000
   18      C       1.4096090000     3.0227380000     1.8146090000
   19      H       1.2297260000     2.6369800000     2.8366760000
   20      H       0.8773460000     3.9928700000     1.7262390000
   21      H       2.4949100000     3.2385580000     1.7262280000
   22      H       1.4443340000     3.0971600000    -1.1615750000
 ----------------------------------------------------------------

   10   -1179.6737912335      5.07e-07  Convergence criterion met
 Total energy in the final basis set =    -1179.6737912335
        RIMP2         total energy =     -1181.6542167499 a.u.

                    Orbital Energies (a.u.)
 --------------------------------------------------------------

 Alpha MOs
 -- Occupied --
-91.9848 -91.9827 -11.2740 -11.2717 -11.2706 -11.2687 -11.2512 -11.2506
-11.2458 -11.2402 -11.2292 -11.2287  -8.9844  -8.9825  -6.6653  -6.6647
 -6.6641  -6.6633  -6.6628  -6.6622  -1.1795  -1.1488  -1.0406  -1.0221
 -0.9968  -0.9537  -0.9124  -0.8920  -0.8001  -0.7517  -0.7325  -0.6937
 -0.6611  -0.6166  -0.5830  -0.5791  -0.5699  -0.5688  -0.5514  -0.5315
 -0.5305  -0.5190  -0.5082  -0.4912  -0.4816  -0.4656  -0.4621  -0.3512
 -0.3349  -0.3187  -0.3019

          Ground-State Mulliken Net Atomic Charges

     Atom                 Charge (a.u.)
  ----------------------------------------
      1 C                    -0.207442
      2 C                    -0.252798
      3 C                     0.060147
      4 H                     0.182552
      5 C                    -0.065435
      6 S                     0.027064
      7 C                    -0.283914
      8 H                     0.106754
      9 H                     0.110739
     10 H                     0.108553
     11 H                     0.204056
     12 C                    -0.017890
     13 C                    -0.223367
     14 C                     0.024001
     15 H                     0.184417
     16 C                    -0.230366
     17 S                     0.026322
     18 C                    -0.269938
     19 H                     0.102745
     20 H                     0.107739
     21 H                     0.107900
     22 H                     0.198162
  ----------------------------------------
  Sum of atomic charges =     0.000000

                    Cartesian Multipole Moments
 -----------------------------------------------------------------
    Charge (ESU x 10^10)
                -0.0000
    Dipole Moment (Debye)
         X      -0.5440      Y       0.4203      Z       1.7419
       Tot       1.8727
    Quadrupole Moments (Debye-Ang)
        XX     -84.4290     XY       6.3747     YY     -71.1308
        XZ      -0.6749     YZ       0.5006     ZZ     -86.3654

 Total job time:  579.22s(wall), 575.91s(cpu)
        *  Thank you very much for using Q-Chem.  Have a nice day.  *
