 Q-Chem 5.4, Q-Chem, Inc., Pleasanton, CA (2021)
 Q-Chem 5.4.0 for Intel X86 EM64T Linux

User input:
--------------------------------------------------------------
$molecule
0 1
C	-0.670924	-3.866725	-0.388181
C	0.530648	-3.703963	0.306020
C	0.923703	-2.357056	0.533378
H	1.128579	-4.561092	0.651043
C	-0.000000	-1.440664	-0.000000
S	-1.337567	-2.286957	-0.772234
C	2.183857	-1.978743	1.261192
H	2.742548	-2.878678	1.583666
H	1.970497	-1.376015	2.168641
H	2.863099	-1.375728	0.623012
H	-1.190530	-4.783437	-0.688443
C	0.000000	0.000000	0.000000
C	0.149995	0.850475	1.099446
C	0.390327	2.213354	0.776721
H	0.085947	0.487279	2.136088
C	0.428665	2.430655	-0.612546
S	0.163670	0.928078	-1.486809
C	0.579235	3.284574	1.814609
H	0.505323	2.865404	2.836676
H	-0.185980	4.083890	1.726239
H	1.571698	3.773937	1.726228
H	0.593515	3.365448	-1.161575
$end

$rem
JOBTYPE		SP
EXCHANGE	HF
CORRELATION	pRIMP2
BASIS		cc-pvtz
METHOD		rimp2
AUX_BASIS	rimp2-cc-pvtz
SOLVENT_METHOD	PCM
PURECART	11111
SYMMETRY	false
MEM_TOTAL	110000
SCF_CONVERGENCE = 6
THRESH=10
$end

$solvent
dielectric 4.90
$end
--------------------------------------------------------------

             Standard Nuclear Orientation (Angstroms)
    I     Atom           X                Y                Z
 ----------------------------------------------------------------
    1      C      -0.6709240000    -3.8667250000    -0.3881810000
    2      C       0.5306480000    -3.7039630000     0.3060200000
    3      C       0.9237030000    -2.3570560000     0.5333780000
    4      H       1.1285790000    -4.5610920000     0.6510430000
    5      C       0.0000000000    -1.4406640000     0.0000000000
    6      S      -1.3375670000    -2.2869570000    -0.7722340000
    7      C       2.1838570000    -1.9787430000     1.2611920000
    8      H       2.7425480000    -2.8786780000     1.5836660000
    9      H       1.9704970000    -1.3760150000     2.1686410000
   10      H       2.8630990000    -1.3757280000     0.6230120000
   11      H      -1.1905300000    -4.7834370000    -0.6884430000
   12      C       0.0000000000     0.0000000000     0.0000000000
   13      C       0.1499950000     0.8504750000     1.0994460000
   14      C       0.3903270000     2.2133540000     0.7767210000
   15      H       0.0859470000     0.4872790000     2.1360880000
   16      C       0.4286650000     2.4306550000    -0.6125460000
   17      S       0.1636700000     0.9280780000    -1.4868090000
   18      C       0.5792350000     3.2845740000     1.8146090000
   19      H       0.5053230000     2.8654040000     2.8366760000
   20      H      -0.1859800000     4.0838900000     1.7262390000
   21      H       1.5716980000     3.7739370000     1.7262280000
   22      H       0.5935150000     3.3654480000    -1.1615750000
 ----------------------------------------------------------------

   10   -1179.6845893298      5.21e-07  Convergence criterion met
 Total energy in the final basis set =    -1179.6845893298
        RIMP2         total energy =     -1181.6634710628 a.u.

                    Orbital Energies (a.u.)
 --------------------------------------------------------------

 Alpha MOs
 -- Occupied --
-91.9856 -91.9841 -11.2789 -11.2742 -11.2724 -11.2650 -11.2542 -11.2514
-11.2424 -11.2420 -11.2294 -11.2292  -8.9851  -8.9838  -6.6660  -6.6655
 -6.6649  -6.6647  -6.6642  -6.6636  -1.1791  -1.1497  -1.0405  -1.0239
 -0.9965  -0.9551  -0.9131  -0.8927  -0.8012  -0.7533  -0.7311  -0.6966
 -0.6621  -0.6157  -0.5839  -0.5799  -0.5706  -0.5667  -0.5520  -0.5337
 -0.5292  -0.5212  -0.5078  -0.4915  -0.4868  -0.4673  -0.4601  -0.3468
 -0.3399  -0.3368  -0.2890

          Ground-State Mulliken Net Atomic Charges

     Atom                 Charge (a.u.)
  ----------------------------------------
      1 C                    -0.213959
      2 C                    -0.248819
      3 C                     0.052956
      4 H                     0.184312
      5 C                    -0.036403
      6 S                     0.023398
      7 C                    -0.281351
      8 H                     0.110452
      9 H                     0.108308
     10 H                     0.113769
     11 H                     0.204790
     12 C                    -0.019884
     13 C                    -0.244964
     14 C                     0.025084
     15 H                     0.191503
     16 C                    -0.241084
     17 S                     0.025900
     18 C                    -0.271269
     19 H                     0.102332
     20 H                     0.108619
     21 H                     0.108086
     22 H                     0.198221
  ----------------------------------------
  Sum of atomic charges =     0.000000

                    Cartesian Multipole Moments
 -----------------------------------------------------------------
    Charge (ESU x 10^10)
                -0.0000
    Dipole Moment (Debye)
         X       1.6613      Y       0.2404      Z       2.2257
       Tot       2.7877
    Quadrupole Moments (Debye-Ang)
        XX     -87.5008     XY       0.0473     YY     -68.9712
        XZ       3.0126     YZ      -0.0771     ZZ     -85.0974

 Total job time:  551.31s(wall), 547.83s(cpu)
        *  Thank you very much for using Q-Chem.  Have a nice day.  *
