 Q-Chem 5.4, Q-Chem, Inc., Pleasanton, CA (2021)
 Q-Chem 5.4.0 for Intel X86 EM64T Linux

User input:
--------------------------------------------------------------
$molecule
0 1
C	-0.264439	-3.866725	-0.728625
C	0.209794	-3.703963	0.575519
C	0.364749	-2.357056	1.002336
H	0.446060	-4.561092	1.224165
C	0.000000	-1.440664	0.000000
S	-0.528253	-2.286957	-1.451336
C	0.862253	-1.978743	2.369885
H	1.082953	-2.878678	2.976034
H	0.115513	-1.376015	2.927887
H	1.792797	-1.375728	2.317620
H	-0.469476	-4.783437	-1.292636
C	0.000000	0.000000	0.000000
C	0.223548	0.834165	1.099446
C	0.581748	2.170912	0.776721
H	0.128089	0.477934	2.136088
C	0.638880	2.384045	-0.612546
S	0.243934	0.910282	-1.486809
C	0.863301	3.221592	1.814609
H	0.753137	2.810458	2.836676
H	0.170663	4.084559	1.726239
H	1.894637	3.622593	1.726228
H	0.884575	3.300913	-1.161575
$end

$rem
JOBTYPE		SP
EXCHANGE	HF
CORRELATION	pRIMP2
BASIS		cc-pvtz
METHOD		rimp2
AUX_BASIS	rimp2-cc-pvtz
SOLVENT_METHOD	PCM
PURECART	11111
SYMMETRY	false
MEM_TOTAL	110000
SCF_CONVERGENCE = 6
THRESH=10
$end

$solvent
dielectric 4.90
$end
--------------------------------------------------------------

             Standard Nuclear Orientation (Angstroms)
    I     Atom           X                Y                Z
 ----------------------------------------------------------------
    1      C      -0.2644390000    -3.8667250000    -0.7286250000
    2      C       0.2097940000    -3.7039630000     0.5755190000
    3      C       0.3647490000    -2.3570560000     1.0023360000
    4      H       0.4460600000    -4.5610920000     1.2241650000
    5      C       0.0000000000    -1.4406640000     0.0000000000
    6      S      -0.5282530000    -2.2869570000    -1.4513360000
    7      C       0.8622530000    -1.9787430000     2.3698850000
    8      H       1.0829530000    -2.8786780000     2.9760340000
    9      H       0.1155130000    -1.3760150000     2.9278870000
   10      H       1.7927970000    -1.3757280000     2.3176200000
   11      H      -0.4694760000    -4.7834370000    -1.2926360000
   12      C       0.0000000000     0.0000000000     0.0000000000
   13      C       0.2235480000     0.8341650000     1.0994460000
   14      C       0.5817480000     2.1709120000     0.7767210000
   15      H       0.1280890000     0.4779340000     2.1360880000
   16      C       0.6388800000     2.3840450000    -0.6125460000
   17      S       0.2439340000     0.9102820000    -1.4868090000
   18      C       0.8633010000     3.2215920000     1.8146090000
   19      H       0.7531370000     2.8104580000     2.8366760000
   20      H       0.1706630000     4.0845590000     1.7262390000
   21      H       1.8946370000     3.6225930000     1.7262280000
   22      H       0.8845750000     3.3009130000    -1.1615750000
 ----------------------------------------------------------------

   10   -1179.6811744917      5.01e-07  Convergence criterion met
 Total energy in the final basis set =    -1179.6811744917
        RIMP2         total energy =     -1181.6623122335 a.u.

                    Orbital Energies (a.u.)
 --------------------------------------------------------------

 Alpha MOs
 -- Occupied --
-91.9855 -91.9842 -11.2818 -11.2781 -11.2723 -11.2653 -11.2536 -11.2522
-11.2437 -11.2409 -11.2312 -11.2295  -8.9853  -8.9842  -6.6662  -6.6657
 -6.6652  -6.6650  -6.6646  -6.6640  -1.1816  -1.1502  -1.0421  -1.0272
 -0.9959  -0.9561  -0.9144  -0.8944  -0.8026  -0.7566  -0.7278  -0.7007
 -0.6618  -0.6143  -0.5905  -0.5818  -0.5705  -0.5636  -0.5519  -0.5397
 -0.5292  -0.5237  -0.5050  -0.4917  -0.4862  -0.4754  -0.4525  -0.3670
 -0.3466  -0.3383  -0.2704

          Ground-State Mulliken Net Atomic Charges

     Atom                 Charge (a.u.)
  ----------------------------------------
      1 C                    -0.214265
      2 C                    -0.249638
      3 C                     0.065819
      4 H                     0.184379
      5 C                    -0.040506
      6 S                     0.011622
      7 C                    -0.310766
      8 H                     0.117027
      9 H                     0.106467
     10 H                     0.117879
     11 H                     0.206788
     12 C                     0.034695
     13 C                    -0.282165
     14 C                     0.045947
     15 H                     0.195137
     16 C                    -0.256122
     17 S                     0.019835
     18 C                    -0.270366
     19 H                     0.101754
     20 H                     0.108641
     21 H                     0.108997
     22 H                     0.198839
  ----------------------------------------
  Sum of atomic charges =     0.000000

                    Cartesian Multipole Moments
 -----------------------------------------------------------------
    Charge (ESU x 10^10)
                -0.0000
    Dipole Moment (Debye)
         X       1.0284      Y       0.1914      Z       2.8849
       Tot       3.0686
    Quadrupole Moments (Debye-Ang)
        XX     -91.2208     XY       2.0324     YY     -69.1433
        XZ       2.4159     YZ      -1.0753     ZZ     -80.8843

 Total job time:  566.64s(wall), 561.81s(cpu)
        *  Thank you very much for using Q-Chem.  Have a nice day.  *
