 Q-Chem 5.4, Q-Chem, Inc., Pleasanton, CA (2021)
 Q-Chem 5.4.0 for Intel X86 EM64T Linux

User input:
--------------------------------------------------------------
$molecule
0 1
C	0.593324	-3.866725	0.498788
C	-0.469446	-3.703963	-0.393517
C	-0.817050	-2.357056	-0.685674
H	-0.998381	-4.561092	-0.837128
C	0.000000	-1.440664	0.000000
S	1.183149	-2.286957	0.992768
C	-1.931676	-1.978743	-1.621254
H	-2.425882	-2.878678	-2.035845
H	-1.563980	-1.376015	-2.477868
H	-2.711417	-1.375728	-1.110719
H	1.052896	-4.783437	0.884718
C	0.000000	0.000000	0.000000
C	0.295399	0.811508	1.099446
C	0.768742	2.111949	0.776721
H	0.169256	0.464952	2.136088
C	0.844232	2.319291	-0.612546
S	0.322342	0.885558	-1.486809
C	1.140796	3.134091	1.814609
H	0.995218	2.734123	2.836676
H	0.526006	4.054142	1.726239
H	2.203157	3.443680	1.726228
H	1.168902	3.211257	-1.161575
$end

$rem
JOBTYPE		SP
EXCHANGE	HF
CORRELATION	pRIMP2
BASIS		cc-pvtz
METHOD		rimp2
AUX_BASIS	rimp2-cc-pvtz
SOLVENT_METHOD	PCM
PURECART	11111
SYMMETRY	false
MEM_TOTAL	110000
SCF_CONVERGENCE = 6
THRESH=10
$end

$solvent
dielectric 4.90
$end
--------------------------------------------------------------

             Standard Nuclear Orientation (Angstroms)
    I     Atom           X                Y                Z
 ----------------------------------------------------------------
    1      C       0.5933240000    -3.8667250000     0.4987880000
    2      C      -0.4694460000    -3.7039630000    -0.3935170000
    3      C      -0.8170500000    -2.3570560000    -0.6856740000
    4      H      -0.9983810000    -4.5610920000    -0.8371280000
    5      C       0.0000000000    -1.4406640000     0.0000000000
    6      S       1.1831490000    -2.2869570000     0.9927680000
    7      C      -1.9316760000    -1.9787430000    -1.6212540000
    8      H      -2.4258820000    -2.8786780000    -2.0358450000
    9      H      -1.5639800000    -1.3760150000    -2.4778680000
   10      H      -2.7114170000    -1.3757280000    -1.1107190000
   11      H       1.0528960000    -4.7834370000     0.8847180000
   12      C       0.0000000000     0.0000000000     0.0000000000
   13      C       0.2953990000     0.8115080000     1.0994460000
   14      C       0.7687420000     2.1119490000     0.7767210000
   15      H       0.1692560000     0.4649520000     2.1360880000
   16      C       0.8442320000     2.3192910000    -0.6125460000
   17      S       0.3223420000     0.8855580000    -1.4868090000
   18      C       1.1407960000     3.1340910000     1.8146090000
   19      H       0.9952180000     2.7341230000     2.8366760000
   20      H       0.5260060000     4.0541420000     1.7262390000
   21      H       2.2031570000     3.4436800000     1.7262280000
   22      H       1.1689020000     3.2112570000    -1.1615750000
 ----------------------------------------------------------------

   10   -1179.6805707881      5.17e-07  Convergence criterion met
 Total energy in the final basis set =    -1179.6805707881
        RIMP2         total energy =     -1181.6606054587 a.u.

                    Orbital Energies (a.u.)
 --------------------------------------------------------------

 Alpha MOs
 -- Occupied --
-91.9850 -91.9850 -11.2784 -11.2740 -11.2710 -11.2669 -11.2518 -11.2512
-11.2433 -11.2418 -11.2294 -11.2292  -8.9847  -8.9846  -6.6656  -6.6655
 -6.6650  -6.6649  -6.6644  -6.6643  -1.1803  -1.1495  -1.0411  -1.0233
 -0.9988  -0.9521  -0.9147  -0.8926  -0.8001  -0.7601  -0.7252  -0.6934
 -0.6622  -0.6166  -0.5832  -0.5789  -0.5745  -0.5696  -0.5519  -0.5339
 -0.5264  -0.5191  -0.5082  -0.4947  -0.4858  -0.4673  -0.4585  -0.3480
 -0.3435  -0.3397  -0.2820

          Ground-State Mulliken Net Atomic Charges

     Atom                 Charge (a.u.)
  ----------------------------------------
      1 C                    -0.214121
      2 C                    -0.248028
      3 C                     0.031907
      4 H                     0.183754
      5 C                    -0.021926
      6 S                     0.023852
      7 C                    -0.290446
      8 H                     0.109160
      9 H                     0.110043
     10 H                     0.112277
     11 H                     0.204557
     12 C                     0.025401
     13 C                    -0.301862
     14 C                     0.050870
     15 H                     0.189521
     16 C                    -0.243620
     17 S                     0.031036
     18 C                    -0.270066
     19 H                     0.103073
     20 H                     0.107990
     21 H                     0.108816
     22 H                     0.197812
  ----------------------------------------
  Sum of atomic charges =     0.000000

                    Cartesian Multipole Moments
 -----------------------------------------------------------------
    Charge (ESU x 10^10)
                -0.0000
    Dipole Moment (Debye)
         X      -0.4425      Y       0.3010      Z       0.4856
       Tot       0.7226
    Quadrupole Moments (Debye-Ang)
        XX     -87.5535     XY       5.2291     YY     -70.0867
        XZ       3.6323     YZ       2.3390     ZZ     -83.8988

 Total job time:  543.93s(wall), 540.50s(cpu)
        *  Thank you very much for using Q-Chem.  Have a nice day.  *
