 Q-Chem 5.4, Q-Chem, Inc., Pleasanton, CA (2021)
 Q-Chem 5.4.0 for Intel X86 EM64T Linux

User input:
--------------------------------------------------------------
$molecule
0 1
C	0.497696	-3.866725	0.594240
C	-0.393981	-3.703963	-0.469057
C	-0.685571	-2.357056	-0.817136
H	-0.837848	-4.561092	-0.997777
C	0.000000	-1.440664	0.000000
S	0.992782	-2.286957	1.183137
C	-1.620802	-1.978743	-1.932056
H	-2.035506	-2.878678	-2.426166
H	-1.109943	-1.376015	-2.711806
H	-2.477350	-1.375728	-1.564678
H	0.883271	-4.783437	1.054110
C	0.000000	0.000000	0.000000
C	0.295399	0.811508	1.099446
C	0.768742	2.111949	0.776721
H	0.169256	0.464952	2.136088
C	0.844232	2.319291	-0.612546
S	0.322342	0.885558	-1.486809
C	1.140796	3.134091	1.814609
H	0.995218	2.734123	2.836676
H	0.526006	4.054142	1.726239
H	2.203157	3.443680	1.726228
H	1.168902	3.211257	-1.161575
$end

$rem
JOBTYPE		SP
EXCHANGE	HF
CORRELATION	pRIMP2
BASIS		cc-pvtz
METHOD		rimp2
AUX_BASIS	rimp2-cc-pvtz
SOLVENT_METHOD	PCM
PURECART	11111
SYMMETRY	false
MEM_TOTAL	110000
SCF_CONVERGENCE = 6
THRESH=10
$end

$solvent
dielectric 4.90
$end
--------------------------------------------------------------

             Standard Nuclear Orientation (Angstroms)
    I     Atom           X                Y                Z
 ----------------------------------------------------------------
    1      C       0.4976960000    -3.8667250000     0.5942400000
    2      C      -0.3939810000    -3.7039630000    -0.4690570000
    3      C      -0.6855710000    -2.3570560000    -0.8171360000
    4      H      -0.8378480000    -4.5610920000    -0.9977770000
    5      C       0.0000000000    -1.4406640000     0.0000000000
    6      S       0.9927820000    -2.2869570000     1.1831370000
    7      C      -1.6208020000    -1.9787430000    -1.9320560000
    8      H      -2.0355060000    -2.8786780000    -2.4261660000
    9      H      -1.1099430000    -1.3760150000    -2.7118060000
   10      H      -2.4773500000    -1.3757280000    -1.5646780000
   11      H       0.8832710000    -4.7834370000     1.0541100000
   12      C       0.0000000000     0.0000000000     0.0000000000
   13      C       0.2953990000     0.8115080000     1.0994460000
   14      C       0.7687420000     2.1119490000     0.7767210000
   15      H       0.1692560000     0.4649520000     2.1360880000
   16      C       0.8442320000     2.3192910000    -0.6125460000
   17      S       0.3223420000     0.8855580000    -1.4868090000
   18      C       1.1407960000     3.1340910000     1.8146090000
   19      H       0.9952180000     2.7341230000     2.8366760000
   20      H       0.5260060000     4.0541420000     1.7262390000
   21      H       2.2031570000     3.4436800000     1.7262280000
   22      H       1.1689020000     3.2112570000    -1.1615750000
 ----------------------------------------------------------------

   10   -1179.6806315210      5.24e-07  Convergence criterion met
 Total energy in the final basis set =    -1179.6806315210
        RIMP2         total energy =     -1181.6612102144 a.u.

                    Orbital Energies (a.u.)
 --------------------------------------------------------------

 Alpha MOs
 -- Occupied --
-91.9852 -91.9850 -11.2795 -11.2751 -11.2709 -11.2666 -11.2522 -11.2512
-11.2430 -11.2422 -11.2297 -11.2292  -8.9849  -8.9846  -6.6658  -6.6655
 -6.6652  -6.6649  -6.6646  -6.6643  -1.1809  -1.1497  -1.0416  -1.0239
 -0.9991  -0.9520  -0.9150  -0.8931  -0.8002  -0.7619  -0.7236  -0.6937
 -0.6624  -0.6165  -0.5835  -0.5787  -0.5764  -0.5698  -0.5521  -0.5342
 -0.5258  -0.5194  -0.5088  -0.4955  -0.4865  -0.4679  -0.4566  -0.3552
 -0.3422  -0.3416  -0.2768

          Ground-State Mulliken Net Atomic Charges

     Atom                 Charge (a.u.)
  ----------------------------------------
      1 C                    -0.215720
      2 C                    -0.247290
      3 C                     0.030652
      4 H                     0.183963
      5 C                    -0.016086
      6 S                     0.020252
      7 C                    -0.298954
      8 H                     0.110648
      9 H                     0.111619
     10 H                     0.114318
     11 H                     0.204886
     12 C                     0.037786
     13 C                    -0.309935
     14 C                     0.054166
     15 H                     0.187494
     16 C                    -0.249065
     17 S                     0.033279
     18 C                    -0.270024
     19 H                     0.103162
     20 H                     0.108110
     21 H                     0.109049
     22 H                     0.197688
  ----------------------------------------
  Sum of atomic charges =     0.000000

                    Cartesian Multipole Moments
 -----------------------------------------------------------------
    Charge (ESU x 10^10)
                -0.0000
    Dipole Moment (Debye)
         X      -0.2711      Y       0.2933      Z       0.2923
       Tot       0.4950
    Quadrupole Moments (Debye-Ang)
        XX     -88.6891     XY       5.0016     YY     -70.0713
        XZ       3.6515     YZ       2.6383     ZZ     -82.7212

 Total job time:  546.84s(wall), 543.00s(cpu)
        *  Thank you very much for using Q-Chem.  Have a nice day.  *
