 Q-Chem 5.4, Q-Chem, Inc., Pleasanton, CA (2021)
 Q-Chem 5.4.0 for Intel X86 EM64T Linux

User input:
--------------------------------------------------------------
$molecule
0 1
C	0.763475	-3.866725	-0.133897
C	-0.603206	-3.703963	0.106669
C	-1.050446	-2.357056	0.185154
H	-1.283024	-4.561092	0.226709
C	0.000000	-1.440664	0.000000
S	1.521018	-2.286957	-0.268206
C	-2.483610	-1.978743	0.437628
H	-3.118875	-2.878678	0.549717
H	-2.903464	-1.376015	-0.394664
H	-2.593726	-1.375728	1.363110
H	1.354522	-4.783437	-0.237880
C	0.000000	0.000000	0.000000
C	0.747916	0.431772	1.099446
C	1.946425	1.123709	0.776721
H	0.428523	0.247378	2.136088
C	2.137531	1.234018	-0.612546
S	0.816154	0.471179	-1.486809
C	2.888455	1.667564	1.814609
H	2.519842	1.454746	2.836676
H	3.008896	2.767543	1.726239
H	3.901271	1.221850	1.726228
H	2.959587	1.708609	-1.161575
$end

$rem
JOBTYPE		SP
EXCHANGE	HF
CORRELATION	pRIMP2
BASIS		cc-pvtz
METHOD		rimp2
AUX_BASIS	rimp2-cc-pvtz
SOLVENT_METHOD	PCM
PURECART	11111
SYMMETRY	false
MEM_TOTAL	110000
SCF_CONVERGENCE = 6
THRESH=10
$end

$solvent
dielectric 4.90
$end
--------------------------------------------------------------

             Standard Nuclear Orientation (Angstroms)
    I     Atom           X                Y                Z
 ----------------------------------------------------------------
    1      C       0.7634750000    -3.8667250000    -0.1338970000
    2      C      -0.6032060000    -3.7039630000     0.1066690000
    3      C      -1.0504460000    -2.3570560000     0.1851540000
    4      H      -1.2830240000    -4.5610920000     0.2267090000
    5      C       0.0000000000    -1.4406640000     0.0000000000
    6      S       1.5210180000    -2.2869570000    -0.2682060000
    7      C      -2.4836100000    -1.9787430000     0.4376280000
    8      H      -3.1188750000    -2.8786780000     0.5497170000
    9      H      -2.9034640000    -1.3760150000    -0.3946640000
   10      H      -2.5937260000    -1.3757280000     1.3631100000
   11      H       1.3545220000    -4.7834370000    -0.2378800000
   12      C       0.0000000000     0.0000000000     0.0000000000
   13      C       0.7479160000     0.4317720000     1.0994460000
   14      C       1.9464250000     1.1237090000     0.7767210000
   15      H       0.4285230000     0.2473780000     2.1360880000
   16      C       2.1375310000     1.2340180000    -0.6125460000
   17      S       0.8161540000     0.4711790000    -1.4868090000
   18      C       2.8884550000     1.6675640000     1.8146090000
   19      H       2.5198420000     1.4547460000     2.8366760000
   20      H       3.0088960000     2.7675430000     1.7262390000
   21      H       3.9012710000     1.2218500000     1.7262280000
   22      H       2.9595870000     1.7086090000    -1.1615750000
 ----------------------------------------------------------------

   10   -1179.6126794937      8.42e-07  Convergence criterion met
 Total energy in the final basis set =    -1179.6126794937
        RIMP2         total energy =     -1181.6064929358 a.u.

                    Orbital Energies (a.u.)
 --------------------------------------------------------------

 Alpha MOs
 -- Occupied --
-91.9823 -91.9716 -11.2913 -11.2699 -11.2659 -11.2627 -11.2535 -11.2494
-11.2383 -11.2343 -11.2311 -11.2246  -8.9831  -8.9723  -6.6638  -6.6629
 -6.6627  -6.6532  -6.6526  -6.6520  -1.1917  -1.1442  -1.0460  -1.0164
 -1.0005  -0.9507  -0.9109  -0.8899  -0.7976  -0.7474  -0.7424  -0.6893
 -0.6552  -0.6227  -0.5876  -0.5791  -0.5683  -0.5677  -0.5479  -0.5346
 -0.5320  -0.5155  -0.5069  -0.4893  -0.4707  -0.4606  -0.4503  -0.3654
 -0.3282  -0.3152  -0.2881

          Ground-State Mulliken Net Atomic Charges

     Atom                 Charge (a.u.)
  ----------------------------------------
      1 C                    -0.232877
      2 C                    -0.249041
      3 C                     0.040983
      4 H                     0.179590
      5 C                    -0.054924
      6 S                     0.009248
      7 C                    -0.282529
      8 H                     0.105085
      9 H                     0.108073
     10 H                     0.105440
     11 H                     0.201573
     12 C                    -0.130775
     13 C                    -0.098045
     14 C                    -0.020243
     15 H                     0.188190
     16 C                    -0.165778
     17 S                     0.043368
     18 C                    -0.267583
     19 H                     0.103484
     20 H                     0.108323
     21 H                     0.106305
     22 H                     0.202134
  ----------------------------------------
  Sum of atomic charges =     0.000000

                    Cartesian Multipole Moments
 -----------------------------------------------------------------
    Charge (ESU x 10^10)
                -0.0000
    Dipole Moment (Debye)
         X       1.5236      Y       0.8932      Z       1.8446
       Tot       2.5538
    Quadrupole Moments (Debye-Ang)
        XX     -77.2970     XY       7.9366     YY     -80.3066
        XZ      -0.5446     YZ       0.1416     ZZ     -85.3642

 Total job time:  584.75s(wall), 581.56s(cpu)
        *  Thank you very much for using Q-Chem.  Have a nice day.  *
