 Q-Chem 5.4, Q-Chem, Inc., Pleasanton, CA (2021)
 Q-Chem 5.4.0 for Intel X86 EM64T Linux

User input:
--------------------------------------------------------------
$molecule
0 1
C	0.135301	-3.866725	-0.763228
C	-0.106073	-3.703963	0.603311
C	-0.185286	-2.357056	1.050423
H	-0.225783	-4.561092	1.283188
C	-0.000000	-1.440664	-0.000000
S	0.268187	-2.286957	-1.521021
C	-0.438209	-1.978743	2.483507
H	-0.550153	-2.878678	3.118798
H	-1.363906	-1.376015	2.593381
H	0.393798	-1.375728	2.903516
H	0.239740	-4.783437	-1.354194
C	0.000000	0.000000	0.000000
C	0.365003	0.782674	1.099446
C	0.949885	2.036912	0.776721
H	0.209135	0.448431	2.136088
C	1.043159	2.236886	-0.612546
S	0.398297	0.854094	-1.486809
C	1.409609	3.022738	1.814609
H	1.229726	2.636980	2.836676
H	0.877346	3.992870	1.726239
H	2.494910	3.238558	1.726228
H	1.444334	3.097160	-1.161575
$end

$rem
JOBTYPE		SP
EXCHANGE	HF
CORRELATION	pRIMP2
BASIS		cc-pvtz
METHOD		rimp2
AUX_BASIS	rimp2-cc-pvtz
SOLVENT_METHOD	PCM
PURECART	11111
SYMMETRY	false
MEM_TOTAL	110000
SCF_CONVERGENCE = 6
THRESH=10
$end

$solvent
dielectric 4.90
$end
--------------------------------------------------------------

             Standard Nuclear Orientation (Angstroms)
    I     Atom           X                Y                Z
 ----------------------------------------------------------------
    1      C       0.1353010000    -3.8667250000    -0.7632280000
    2      C      -0.1060730000    -3.7039630000     0.6033110000
    3      C      -0.1852860000    -2.3570560000     1.0504230000
    4      H      -0.2257830000    -4.5610920000     1.2831880000
    5      C       0.0000000000    -1.4406640000     0.0000000000
    6      S       0.2681870000    -2.2869570000    -1.5210210000
    7      C      -0.4382090000    -1.9787430000     2.4835070000
    8      H      -0.5501530000    -2.8786780000     3.1187980000
    9      H      -1.3639060000    -1.3760150000     2.5933810000
   10      H       0.3937980000    -1.3757280000     2.9035160000
   11      H       0.2397400000    -4.7834370000    -1.3541940000
   12      C       0.0000000000     0.0000000000     0.0000000000
   13      C       0.3650030000     0.7826740000     1.0994460000
   14      C       0.9498850000     2.0369120000     0.7767210000
   15      H       0.2091350000     0.4484310000     2.1360880000
   16      C       1.0431590000     2.2368860000    -0.6125460000
   17      S       0.3982970000     0.8540940000    -1.4868090000
   18      C       1.4096090000     3.0227380000     1.8146090000
   19      H       1.2297260000     2.6369800000     2.8366760000
   20      H       0.8773460000     3.9928700000     1.7262390000
   21      H       2.4949100000     3.2385580000     1.7262280000
   22      H       1.4443340000     3.0971600000    -1.1615750000
 ----------------------------------------------------------------

   10   -1179.6722213596      4.79e-07  Convergence criterion met
 Total energy in the final basis set =    -1179.6722213596
        RIMP2         total energy =     -1181.6557841271 a.u.

                    Orbital Energies (a.u.)
 --------------------------------------------------------------

 Alpha MOs
 -- Occupied --
-91.9857 -91.9831 -11.2804 -11.2786 -11.2689 -11.2686 -11.2532 -11.2494
-11.2445 -11.2425 -11.2308 -11.2300  -8.9857  -8.9832  -6.6666  -6.6661
 -6.6654  -6.6641  -6.6635  -6.6629  -1.1830  -1.1498  -1.0431  -1.0265
 -0.9959  -0.9565  -0.9135  -0.8947  -0.8028  -0.7563  -0.7280  -0.7009
 -0.6606  -0.6142  -0.5919  -0.5822  -0.5706  -0.5630  -0.5520  -0.5405
 -0.5305  -0.5228  -0.5050  -0.4906  -0.4842  -0.4776  -0.4490  -0.3710
 -0.3479  -0.3359  -0.2671

          Ground-State Mulliken Net Atomic Charges

     Atom                 Charge (a.u.)
  ----------------------------------------
      1 C                    -0.225113
      2 C                    -0.246492
      3 C                     0.052253
      4 H                     0.183808
      5 C                    -0.030839
      6 S                     0.007626
      7 C                    -0.315038
      8 H                     0.117280
      9 H                     0.114529
     10 H                     0.103700
     11 H                     0.206119
     12 C                     0.019386
     13 C                    -0.230891
     14 C                     0.023770
     15 H                     0.194014
     16 C                    -0.234946
     17 S                     0.010400
     18 C                    -0.269897
     19 H                     0.101645
     20 H                     0.108940
     21 H                     0.108622
     22 H                     0.201124
  ----------------------------------------
  Sum of atomic charges =     0.000000

                    Cartesian Multipole Moments
 -----------------------------------------------------------------
    Charge (ESU x 10^10)
                -0.0000
    Dipole Moment (Debye)
         X       0.6662      Y       0.5065      Z       2.9230
       Tot       3.0404
    Quadrupole Moments (Debye-Ang)
        XX     -90.4735     XY       4.7585     YY     -71.1436
        XZ      -0.7096     YZ      -1.3287     ZZ     -80.2780

 Total job time:  570.59s(wall), 567.10s(cpu)
        *  Thank you very much for using Q-Chem.  Have a nice day.  *
