 Q-Chem 5.4, Q-Chem, Inc., Pleasanton, CA (2021)
 Q-Chem 5.4.0 for Intel X86 EM64T Linux

User input:
--------------------------------------------------------------
$molecule
0 1
C	-0.728138	-3.866725	-0.265779
C	0.575726	-3.703963	0.209225
C	1.002290	-2.357056	0.364875
H	1.224486	-4.561092	0.445176
C	0.000000	-1.440664	0.000000
S	-1.451343	-2.286957	-0.528236
C	2.369683	-1.978743	0.862808
H	2.975883	-2.878678	1.083368
H	2.317142	-1.376015	1.793522
H	2.927787	-1.375728	0.116375
H	-1.291990	-4.783437	-0.471251
C	0.000000	0.000000	0.000000
C	0.747916	0.431772	1.099446
C	1.946425	1.123709	0.776721
H	0.428523	0.247378	2.136088
C	2.137531	1.234018	-0.612546
S	0.816154	0.471179	-1.486809
C	2.888455	1.667564	1.814609
H	2.519842	1.454746	2.836676
H	3.008896	2.767543	1.726239
H	3.901271	1.221850	1.726228
H	2.959587	1.708609	-1.161575
$end

$rem
JOBTYPE		SP
EXCHANGE	HF
CORRELATION	pRIMP2
BASIS		cc-pvtz
METHOD		rimp2
AUX_BASIS	rimp2-cc-pvtz
SOLVENT_METHOD	PCM
PURECART	11111
SYMMETRY	false
MEM_TOTAL	110000
SCF_CONVERGENCE = 6
THRESH=10
$end

$solvent
dielectric 4.90
$end
--------------------------------------------------------------

             Standard Nuclear Orientation (Angstroms)
    I     Atom           X                Y                Z
 ----------------------------------------------------------------
    1      C      -0.7281380000    -3.8667250000    -0.2657790000
    2      C       0.5757260000    -3.7039630000     0.2092250000
    3      C       1.0022900000    -2.3570560000     0.3648750000
    4      H       1.2244860000    -4.5610920000     0.4451760000
    5      C       0.0000000000    -1.4406640000     0.0000000000
    6      S      -1.4513430000    -2.2869570000    -0.5282360000
    7      C       2.3696830000    -1.9787430000     0.8628080000
    8      H       2.9758830000    -2.8786780000     1.0833680000
    9      H       2.3171420000    -1.3760150000     1.7935220000
   10      H       2.9277870000    -1.3757280000     0.1163750000
   11      H      -1.2919900000    -4.7834370000    -0.4712510000
   12      C       0.0000000000     0.0000000000     0.0000000000
   13      C       0.7479160000     0.4317720000     1.0994460000
   14      C       1.9464250000     1.1237090000     0.7767210000
   15      H       0.4285230000     0.2473780000     2.1360880000
   16      C       2.1375310000     1.2340180000    -0.6125460000
   17      S       0.8161540000     0.4711790000    -1.4868090000
   18      C       2.8884550000     1.6675640000     1.8146090000
   19      H       2.5198420000     1.4547460000     2.8366760000
   20      H       3.0088960000     2.7675430000     1.7262390000
   21      H       3.9012710000     1.2218500000     1.7262280000
   22      H       2.9595870000     1.7086090000    -1.1615750000
 ----------------------------------------------------------------

   11   -1179.6120897222      4.69e-07  Convergence criterion met
 Total energy in the final basis set =    -1179.6120897222
        RIMP2         total energy =     -1181.6109162971 a.u.

                    Orbital Energies (a.u.)
 --------------------------------------------------------------

 Alpha MOs
 -- Occupied --
-91.9834 -91.9728 -11.2892 -11.2735 -11.2654 -11.2618 -11.2525 -11.2496
-11.2413 -11.2371 -11.2321 -11.2250  -8.9838  -8.9731  -6.6645  -6.6637
 -6.6634  -6.6540  -6.6534  -6.6529  -1.1914  -1.1449  -1.0462  -1.0193
 -0.9999  -0.9519  -0.9140  -0.8894  -0.7949  -0.7499  -0.7422  -0.6965
 -0.6543  -0.6207  -0.5880  -0.5843  -0.5711  -0.5665  -0.5491  -0.5363
 -0.5262  -0.5230  -0.5120  -0.4869  -0.4693  -0.4618  -0.4452  -0.3506
 -0.3366  -0.3266  -0.2853

          Ground-State Mulliken Net Atomic Charges

     Atom                 Charge (a.u.)
  ----------------------------------------
      1 C                    -0.223023
      2 C                    -0.261435
      3 C                     0.042834
      4 H                     0.181948
      5 C                     0.014348
      6 S                    -0.003612
      7 C                    -0.323810
      8 H                     0.119595
      9 H                     0.109457
     10 H                     0.118645
     11 H                     0.199586
     12 C                    -0.172687
     13 C                    -0.118003
     14 C                    -0.008523
     15 H                     0.196958
     16 C                    -0.180043
     17 S                     0.045668
     18 C                    -0.275870
     19 H                     0.106147
     20 H                     0.120882
     21 H                     0.106749
     22 H                     0.204189
  ----------------------------------------
  Sum of atomic charges =     0.000000

                    Cartesian Multipole Moments
 -----------------------------------------------------------------
    Charge (ESU x 10^10)
                -0.0000
    Dipole Moment (Debye)
         X       4.3946      Y       0.8096      Z       2.1907
       Tot       4.9767
    Quadrupole Moments (Debye-Ang)
        XX     -77.8571     XY       3.2986     YY     -80.2418
        XZ       2.3372     YZ      -0.2720     ZZ     -85.1875

 Total job time:  675.75s(wall), 673.47s(cpu)
        *  Thank you very much for using Q-Chem.  Have a nice day.  *
