 Q-Chem 5.4, Q-Chem, Inc., Pleasanton, CA (2021)
 Q-Chem 5.4.0 for Intel X86 EM64T Linux

User input:
--------------------------------------------------------------
$molecule
0 1
C	0.593324	-3.866725	0.498788
C	-0.469446	-3.703963	-0.393517
C	-0.817050	-2.357056	-0.685674
H	-0.998381	-4.561092	-0.837128
C	0.000000	-1.440664	0.000000
S	1.183149	-2.286957	0.992768
C	-1.931676	-1.978743	-1.621254
H	-2.425882	-2.878678	-2.035845
H	-1.563980	-1.376015	-2.477868
H	-2.711417	-1.375728	-1.110719
H	1.052896	-4.783437	0.884718
C	0.000000	0.000000	0.000000
C	0.431829	0.747884	1.099446
C	1.123799	1.946373	0.776721
H	0.247423	0.428497	2.136088
C	1.234147	2.137457	-0.612546
S	0.471221	0.816130	-1.486809
C	1.667694	2.888380	1.814609
H	1.454874	2.519768	2.836676
H	1.222009	3.901210	1.726239
H	2.767675	3.008788	1.726228
H	1.708773	2.959493	-1.161575
$end

$rem
JOBTYPE		SP
EXCHANGE	HF
CORRELATION	pRIMP2
BASIS		cc-pvtz
METHOD		rimp2
AUX_BASIS	rimp2-cc-pvtz
SOLVENT_METHOD	PCM
PURECART	11111
SYMMETRY	false
MEM_TOTAL	110000
SCF_CONVERGENCE = 6
THRESH=10
$end

$solvent
dielectric 4.90
$end
--------------------------------------------------------------

             Standard Nuclear Orientation (Angstroms)
    I     Atom           X                Y                Z
 ----------------------------------------------------------------
    1      C       0.5933240000    -3.8667250000     0.4987880000
    2      C      -0.4694460000    -3.7039630000    -0.3935170000
    3      C      -0.8170500000    -2.3570560000    -0.6856740000
    4      H      -0.9983810000    -4.5610920000    -0.8371280000
    5      C       0.0000000000    -1.4406640000     0.0000000000
    6      S       1.1831490000    -2.2869570000     0.9927680000
    7      C      -1.9316760000    -1.9787430000    -1.6212540000
    8      H      -2.4258820000    -2.8786780000    -2.0358450000
    9      H      -1.5639800000    -1.3760150000    -2.4778680000
   10      H      -2.7114170000    -1.3757280000    -1.1107190000
   11      H       1.0528960000    -4.7834370000     0.8847180000
   12      C       0.0000000000     0.0000000000     0.0000000000
   13      C       0.4318290000     0.7478840000     1.0994460000
   14      C       1.1237990000     1.9463730000     0.7767210000
   15      H       0.2474230000     0.4284970000     2.1360880000
   16      C       1.2341470000     2.1374570000    -0.6125460000
   17      S       0.4712210000     0.8161300000    -1.4868090000
   18      C       1.6676940000     2.8883800000     1.8146090000
   19      H       1.4548740000     2.5197680000     2.8366760000
   20      H       1.2220090000     3.9012100000     1.7262390000
   21      H       2.7676750000     3.0087880000     1.7262280000
   22      H       1.7087730000     2.9594930000    -1.1615750000
 ----------------------------------------------------------------

   10   -1179.6713426371      5.14e-07  Convergence criterion met
 Total energy in the final basis set =    -1179.6713426371
        RIMP2         total energy =     -1181.6538351836 a.u.

                    Orbital Energies (a.u.)
 --------------------------------------------------------------

 Alpha MOs
 -- Occupied --
-91.9848 -91.9838 -11.2747 -11.2732 -11.2705 -11.2691 -11.2524 -11.2485
-11.2461 -11.2408 -11.2295 -11.2289  -8.9846  -8.9834  -6.6655  -6.6649
 -6.6643  -6.6643  -6.6637  -6.6631  -1.1814  -1.1490  -1.0417  -1.0224
 -0.9992  -0.9513  -0.9145  -0.8922  -0.7993  -0.7600  -0.7260  -0.6922
 -0.6612  -0.6171  -0.5832  -0.5795  -0.5741  -0.5696  -0.5514  -0.5341
 -0.5266  -0.5184  -0.5083  -0.4942  -0.4819  -0.4673  -0.4583  -0.3464
 -0.3440  -0.3398  -0.2809

          Ground-State Mulliken Net Atomic Charges

     Atom                 Charge (a.u.)
  ----------------------------------------
      1 C                    -0.218886
      2 C                    -0.247077
      3 C                     0.030510
      4 H                     0.183103
      5 C                    -0.016681
      6 S                     0.023025
      7 C                    -0.291237
      8 H                     0.109133
      9 H                     0.109311
     10 H                     0.111502
     11 H                     0.204072
     12 C                     0.012613
     13 C                    -0.310553
     14 C                     0.059764
     15 H                     0.191755
     16 C                    -0.236357
     17 S                     0.035885
     18 C                    -0.268044
     19 H                     0.103222
     20 H                     0.108035
     21 H                     0.108619
     22 H                     0.198286
  ----------------------------------------
  Sum of atomic charges =     0.000000

                    Cartesian Multipole Moments
 -----------------------------------------------------------------
    Charge (ESU x 10^10)
                -0.0000
    Dipole Moment (Debye)
         X      -0.0123      Y       0.4627      Z       0.5209
       Tot       0.6968
    Quadrupole Moments (Debye-Ang)
        XX     -86.0420     XY       6.6243     YY     -71.9357
        XZ       3.6982     YZ       2.2556     ZZ     -83.8406

 Total job time:  548.33s(wall), 544.11s(cpu)
        *  Thank you very much for using Q-Chem.  Have a nice day.  *
