 Q-Chem 5.4, Q-Chem, Inc., Pleasanton, CA (2021)
 Q-Chem 5.4.0 for Intel X86 EM64T Linux

User input:
--------------------------------------------------------------
$molecule
0 1
C	0.763228	-3.866725	0.135301
C	-0.603311	-3.703963	-0.106073
C	-1.050423	-2.357056	-0.185286
H	-1.283188	-4.561092	-0.225783
C	-0.000000	-1.440664	-0.000000
S	1.521021	-2.286957	0.268187
C	-2.483507	-1.978743	-0.438209
H	-3.118798	-2.878678	-0.550153
H	-2.593381	-1.376015	-1.363906
H	-2.903516	-1.375728	0.393798
H	1.354194	-4.783437	0.239740
C	0.000000	0.000000	0.000000
C	0.149995	0.850475	1.099446
C	0.390327	2.213354	0.776721
H	0.085947	0.487279	2.136088
C	0.428665	2.430655	-0.612546
S	0.163670	0.928078	-1.486809
C	0.579235	3.284574	1.814609
H	0.505323	2.865404	2.836676
H	-0.185980	4.083890	1.726239
H	1.571698	3.773937	1.726228
H	0.593515	3.365448	-1.161575
$end

$rem
JOBTYPE		SP
EXCHANGE	HF
CORRELATION	pRIMP2
BASIS		cc-pvtz
METHOD		rimp2
AUX_BASIS	rimp2-cc-pvtz
SOLVENT_METHOD	PCM
PURECART	11111
SYMMETRY	false
MEM_TOTAL	110000
SCF_CONVERGENCE = 6
THRESH=10
$end

$solvent
dielectric 4.90
$end
--------------------------------------------------------------

             Standard Nuclear Orientation (Angstroms)
    I     Atom           X                Y                Z
 ----------------------------------------------------------------
    1      C       0.7632280000    -3.8667250000     0.1353010000
    2      C      -0.6033110000    -3.7039630000    -0.1060730000
    3      C      -1.0504230000    -2.3570560000    -0.1852860000
    4      H      -1.2831880000    -4.5610920000    -0.2257830000
    5      C       0.0000000000    -1.4406640000     0.0000000000
    6      S       1.5210210000    -2.2869570000     0.2681870000
    7      C      -2.4835070000    -1.9787430000    -0.4382090000
    8      H      -3.1187980000    -2.8786780000    -0.5501530000
    9      H      -2.5933810000    -1.3760150000    -1.3639060000
   10      H      -2.9035160000    -1.3757280000     0.3937980000
   11      H       1.3541940000    -4.7834370000     0.2397400000
   12      C       0.0000000000     0.0000000000     0.0000000000
   13      C       0.1499950000     0.8504750000     1.0994460000
   14      C       0.3903270000     2.2133540000     0.7767210000
   15      H       0.0859470000     0.4872790000     2.1360880000
   16      C       0.4286650000     2.4306550000    -0.6125460000
   17      S       0.1636700000     0.9280780000    -1.4868090000
   18      C       0.5792350000     3.2845740000     1.8146090000
   19      H       0.5053230000     2.8654040000     2.8366760000
   20      H      -0.1859800000     4.0838900000     1.7262390000
   21      H       1.5716980000     3.7739370000     1.7262280000
   22      H       0.5935150000     3.3654480000    -1.1615750000
 ----------------------------------------------------------------

   10   -1179.6841719455      5.02e-07  Convergence criterion met
 Total energy in the final basis set =    -1179.6841719455
        RIMP2         total energy =     -1181.6621397524 a.u.

                    Orbital Energies (a.u.)
 --------------------------------------------------------------

 Alpha MOs
 -- Occupied --
-91.9851 -91.9846 -11.2780 -11.2724 -11.2723 -11.2652 -11.2535 -11.2508
-11.2427 -11.2416 -11.2293 -11.2289  -8.9845  -8.9842  -6.6654  -6.6651
 -6.6649  -6.6645  -6.6643  -6.6639  -1.1785  -1.1494  -1.0399  -1.0229
 -0.9974  -0.9534  -0.9137  -0.8921  -0.8005  -0.7550  -0.7293  -0.6942
 -0.6623  -0.6164  -0.5825  -0.5789  -0.5714  -0.5692  -0.5519  -0.5321
 -0.5286  -0.5195  -0.5075  -0.4924  -0.4874  -0.4646  -0.4624  -0.3465
 -0.3377  -0.3209  -0.3038

          Ground-State Mulliken Net Atomic Charges

     Atom                 Charge (a.u.)
  ----------------------------------------
      1 C                    -0.208549
      2 C                    -0.250619
      3 C                     0.048455
      4 H                     0.183876
      5 C                    -0.053574
      6 S                     0.025619
      7 C                    -0.282208
      8 H                     0.106679
      9 H                     0.109819
     10 H                     0.110329
     11 H                     0.204442
     12 C                     0.001133
     13 C                    -0.240019
     14 C                     0.024510
     15 H                     0.186465
     16 C                    -0.238452
     17 S                     0.026459
     18 C                    -0.271001
     19 H                     0.102693
     20 H                     0.107784
     21 H                     0.108324
     22 H                     0.197836
  ----------------------------------------
  Sum of atomic charges =     0.000000

                    Cartesian Multipole Moments
 -----------------------------------------------------------------
    Charge (ESU x 10^10)
                -0.0000
    Dipole Moment (Debye)
         X      -1.1379      Y       0.2456      Z       1.1816
       Tot       1.6587
    Quadrupole Moments (Debye-Ang)
        XX     -85.9955     XY       3.9683     YY     -69.0589
        XZ       1.3352     YZ       1.3865     ZZ     -86.5156

 Total job time:  559.26s(wall), 555.66s(cpu)
        *  Thank you very much for using Q-Chem.  Have a nice day.  *
