 Q-Chem 5.4, Q-Chem, Inc., Pleasanton, CA (2021)
 Q-Chem 5.4.0 for Intel X86 EM64T Linux

User input:
--------------------------------------------------------------
$molecule
0 1
C	-0.671636	-3.866725	0.386946
C	0.530345	-3.703963	-0.306544
C	0.923770	-2.357056	-0.533261
H	1.128109	-4.561092	-0.651857
C	0.000000	-1.440664	0.000000
S	-1.337557	-2.286957	0.772250
C	2.184153	-1.978743	-1.260680
H	2.742769	-2.878678	-1.583283
H	2.863347	-1.376015	-0.622180
H	1.971094	-1.375728	-2.168011
H	-1.191474	-4.783437	0.686807
C	0.000000	0.000000	0.000000
C	0.000033	0.863600	1.099446
C	0.000052	2.247508	0.776721
H	0.000026	0.494801	2.136088
C	0.000074	2.468165	-0.612546
S	0.000024	0.942399	-1.486809
C	0.000075	3.335257	1.814609
H	0.000074	2.909620	2.836676
H	-0.892314	3.989552	1.726239
H	0.892483	3.989525	1.726228
H	0.000094	3.417382	-1.161575
$end

$rem
JOBTYPE		SP
EXCHANGE	HF
CORRELATION	pRIMP2
BASIS		cc-pvtz
METHOD		rimp2
AUX_BASIS	rimp2-cc-pvtz
SOLVENT_METHOD	PCM
PURECART	11111
SYMMETRY	false
MEM_TOTAL	110000
SCF_CONVERGENCE = 6
THRESH=10
$end

$solvent
dielectric 4.90
$end
--------------------------------------------------------------

             Standard Nuclear Orientation (Angstroms)
    I     Atom           X                Y                Z
 ----------------------------------------------------------------
    1      C      -0.6716360000    -3.8667250000     0.3869460000
    2      C       0.5303450000    -3.7039630000    -0.3065440000
    3      C       0.9237700000    -2.3570560000    -0.5332610000
    4      H       1.1281090000    -4.5610920000    -0.6518570000
    5      C       0.0000000000    -1.4406640000     0.0000000000
    6      S      -1.3375570000    -2.2869570000     0.7722500000
    7      C       2.1841530000    -1.9787430000    -1.2606800000
    8      H       2.7427690000    -2.8786780000    -1.5832830000
    9      H       2.8633470000    -1.3760150000    -0.6221800000
   10      H       1.9710940000    -1.3757280000    -2.1680110000
   11      H      -1.1914740000    -4.7834370000     0.6868070000
   12      C       0.0000000000     0.0000000000     0.0000000000
   13      C       0.0000330000     0.8636000000     1.0994460000
   14      C       0.0000520000     2.2475080000     0.7767210000
   15      H       0.0000260000     0.4948010000     2.1360880000
   16      C       0.0000740000     2.4681650000    -0.6125460000
   17      S       0.0000240000     0.9423990000    -1.4868090000
   18      C       0.0000750000     3.3352570000     1.8146090000
   19      H       0.0000740000     2.9096200000     2.8366760000
   20      H      -0.8923140000     3.9895520000     1.7262390000
   21      H       0.8924830000     3.9895250000     1.7262280000
   22      H       0.0000940000     3.4173820000    -1.1615750000
 ----------------------------------------------------------------

   10   -1179.6866083615      5.07e-07  Convergence criterion met
 Total energy in the final basis set =    -1179.6866083615
        RIMP2         total energy =     -1181.6647958188 a.u.

                    Orbital Energies (a.u.)
 --------------------------------------------------------------

 Alpha MOs
 -- Occupied --
-91.9854 -91.9853 -11.2803 -11.2742 -11.2722 -11.2644 -11.2536 -11.2511
-11.2424 -11.2420 -11.2291 -11.2289  -8.9849  -8.9849  -6.6658  -6.6658
 -6.6652  -6.6652  -6.6646  -6.6646  -1.1791  -1.1497  -1.0405  -1.0232
 -0.9982  -0.9533  -0.9142  -0.8925  -0.8006  -0.7585  -0.7263  -0.6947
 -0.6626  -0.6163  -0.5827  -0.5783  -0.5736  -0.5696  -0.5521  -0.5329
 -0.5274  -0.5196  -0.5084  -0.4937  -0.4882  -0.4664  -0.4596  -0.3461
 -0.3433  -0.3345  -0.2888

          Ground-State Mulliken Net Atomic Charges

     Atom                 Charge (a.u.)
  ----------------------------------------
      1 C                    -0.215161
      2 C                    -0.247676
      3 C                     0.031473
      4 H                     0.184487
      5 C                    -0.031115
      6 S                     0.024551
      7 C                    -0.285849
      8 H                     0.108967
      9 H                     0.112392
     10 H                     0.110706
     11 H                     0.204638
     12 C                     0.003265
     13 C                    -0.241801
     14 C                     0.021093
     15 H                     0.188387
     16 C                    -0.238972
     17 S                     0.024748
     18 C                    -0.271298
     19 H                     0.102870
     20 H                     0.108350
     21 H                     0.107979
     22 H                     0.197966
  ----------------------------------------
  Sum of atomic charges =     0.000000

                    Cartesian Multipole Moments
 -----------------------------------------------------------------
    Charge (ESU x 10^10)
                -0.0000
    Dipole Moment (Debye)
         X       1.3015      Y       0.2336      Z       0.6678
       Tot       1.4814
    Quadrupole Moments (Debye-Ang)
        XX     -87.8081     XY      -1.8256     YY     -68.7342
        XZ      -2.9044     YZ       2.1046     ZZ     -85.0324

 Total job time:  576.87s(wall), 574.06s(cpu)
        *  Thank you very much for using Q-Chem.  Have a nice day.  *
