 Q-Chem 5.4, Q-Chem, Inc., Pleasanton, CA (2021)
 Q-Chem 5.4.0 for Intel X86 EM64T Linux

User input:
--------------------------------------------------------------
$molecule
0 1
C	-0.264439	-3.866725	-0.728625
C	0.209794	-3.703963	0.575519
C	0.364749	-2.357056	1.002336
H	0.446060	-4.561092	1.224165
C	0.000000	-1.440664	0.000000
S	-0.528253	-2.286957	-1.451336
C	0.862253	-1.978743	2.369885
H	1.082953	-2.878678	2.976034
H	0.115513	-1.376015	2.927887
H	1.792797	-1.375728	2.317620
H	-0.469476	-4.783437	-1.292636
C	0.000000	0.000000	0.000000
C	0.661577	0.555087	1.099446
C	1.721724	1.444630	0.776721
H	0.379056	0.318032	2.136088
C	1.890772	1.586449	-0.612546
S	0.721935	0.605744	-1.486809
C	2.555004	2.143805	1.814609
H	2.228946	1.870211	2.836676
H	2.482605	3.247987	1.726239
H	3.629830	1.880735	1.726228
H	2.617927	2.196579	-1.161575
$end

$rem
JOBTYPE		SP
EXCHANGE	HF
CORRELATION	pRIMP2
BASIS		cc-pvtz
METHOD		rimp2
AUX_BASIS	rimp2-cc-pvtz
SOLVENT_METHOD	PCM
PURECART	11111
SYMMETRY	false
MEM_TOTAL	110000
SCF_CONVERGENCE = 6
THRESH=10
$end

$solvent
dielectric 4.90
$end
--------------------------------------------------------------

             Standard Nuclear Orientation (Angstroms)
    I     Atom           X                Y                Z
 ----------------------------------------------------------------
    1      C      -0.2644390000    -3.8667250000    -0.7286250000
    2      C       0.2097940000    -3.7039630000     0.5755190000
    3      C       0.3647490000    -2.3570560000     1.0023360000
    4      H       0.4460600000    -4.5610920000     1.2241650000
    5      C       0.0000000000    -1.4406640000     0.0000000000
    6      S      -0.5282530000    -2.2869570000    -1.4513360000
    7      C       0.8622530000    -1.9787430000     2.3698850000
    8      H       1.0829530000    -2.8786780000     2.9760340000
    9      H       0.1155130000    -1.3760150000     2.9278870000
   10      H       1.7927970000    -1.3757280000     2.3176200000
   11      H      -0.4694760000    -4.7834370000    -1.2926360000
   12      C       0.0000000000     0.0000000000     0.0000000000
   13      C       0.6615770000     0.5550870000     1.0994460000
   14      C       1.7217240000     1.4446300000     0.7767210000
   15      H       0.3790560000     0.3180320000     2.1360880000
   16      C       1.8907720000     1.5864490000    -0.6125460000
   17      S       0.7219350000     0.6057440000    -1.4868090000
   18      C       2.5550040000     2.1438050000     1.8146090000
   19      H       2.2289460000     1.8702110000     2.8366760000
   20      H       2.4826050000     3.2479870000     1.7262390000
   21      H       3.6298300000     1.8807350000     1.7262280000
   22      H       2.6179270000     2.1965790000    -1.1615750000
 ----------------------------------------------------------------

   11   -1179.6304551662      4.96e-07  Convergence criterion met
 Total energy in the final basis set =    -1179.6304551662
        RIMP2         total energy =     -1181.6235254219 a.u.

                    Orbital Energies (a.u.)
 --------------------------------------------------------------

 Alpha MOs
 -- Occupied --
-91.9835 -91.9751 -11.2836 -11.2782 -11.2641 -11.2624 -11.2564 -11.2540
-11.2417 -11.2390 -11.2316 -11.2289  -8.9841  -8.9757  -6.6649  -6.6642
 -6.6637  -6.6567  -6.6561  -6.6555  -1.1886  -1.1470  -1.0458  -1.0258
 -0.9962  -0.9539  -0.9135  -0.8942  -0.7985  -0.7565  -0.7308  -0.7025
 -0.6553  -0.6163  -0.5966  -0.5837  -0.5703  -0.5605  -0.5502  -0.5419
 -0.5298  -0.5229  -0.5053  -0.4882  -0.4785  -0.4659  -0.4482  -0.3650
 -0.3481  -0.3331  -0.2653

          Ground-State Mulliken Net Atomic Charges

     Atom                 Charge (a.u.)
  ----------------------------------------
      1 C                    -0.229340
      2 C                    -0.252924
      3 C                     0.041679
      4 H                     0.182376
      5 C                    -0.014359
      6 S                    -0.006137
      7 C                    -0.301778
      8 H                     0.114971
      9 H                     0.100161
     10 H                     0.112768
     11 H                     0.202829
     12 C                    -0.067972
     13 C                    -0.200727
     14 C                     0.017487
     15 H                     0.205846
     16 C                    -0.196903
     17 S                     0.038032
     18 C                    -0.273157
     19 H                     0.103137
     20 H                     0.113217
     21 H                     0.108326
     22 H                     0.202466
  ----------------------------------------
  Sum of atomic charges =     0.000000

                    Cartesian Multipole Moments
 -----------------------------------------------------------------
    Charge (ESU x 10^10)
                -0.0000
    Dipole Moment (Debye)
         X       2.8061      Y       1.0194      Z       3.0484
       Tot       4.2668
    Quadrupole Moments (Debye-Ang)
        XX     -84.5338     XY       5.3313     YY     -77.7690
        XZ       2.4788     YZ      -1.6741     ZZ     -80.8502

 Total job time:  639.60s(wall), 635.96s(cpu)
        *  Thank you very much for using Q-Chem.  Have a nice day.  *
