 Q-Chem 5.4, Q-Chem, Inc., Pleasanton, CA (2021)
 Q-Chem 5.4.0 for Intel X86 EM64T Linux

User input:
--------------------------------------------------------------
$molecule
0 1
C	0.265779	-3.866725	-0.728138
C	-0.209225	-3.703963	0.575726
C	-0.364875	-2.357056	1.002290
H	-0.445176	-4.561092	1.224486
C	0.000000	-1.440664	0.000000
S	0.528236	-2.286957	-1.451343
C	-0.862808	-1.978743	2.369683
H	-1.083368	-2.878678	2.975883
H	-1.793522	-1.376015	2.317142
H	-0.116375	-1.375728	2.927787
H	0.471251	-4.783437	-1.291990
C	0.000000	0.000000	0.000000
C	0.661577	0.555087	1.099446
C	1.721724	1.444630	0.776721
H	0.379056	0.318032	2.136088
C	1.890772	1.586449	-0.612546
S	0.721935	0.605744	-1.486809
C	2.555004	2.143805	1.814609
H	2.228946	1.870211	2.836676
H	2.482605	3.247987	1.726239
H	3.629830	1.880735	1.726228
H	2.617927	2.196579	-1.161575
$end

$rem
JOBTYPE		SP
EXCHANGE	HF
CORRELATION	pRIMP2
BASIS		cc-pvtz
METHOD		rimp2
AUX_BASIS	rimp2-cc-pvtz
SOLVENT_METHOD	PCM
PURECART	11111
SYMMETRY	false
MEM_TOTAL	110000
SCF_CONVERGENCE = 6
THRESH=10
$end

$solvent
dielectric 4.90
$end
--------------------------------------------------------------

             Standard Nuclear Orientation (Angstroms)
    I     Atom           X                Y                Z
 ----------------------------------------------------------------
    1      C       0.2657790000    -3.8667250000    -0.7281380000
    2      C      -0.2092250000    -3.7039630000     0.5757260000
    3      C      -0.3648750000    -2.3570560000     1.0022900000
    4      H      -0.4451760000    -4.5610920000     1.2244860000
    5      C       0.0000000000    -1.4406640000     0.0000000000
    6      S       0.5282360000    -2.2869570000    -1.4513430000
    7      C      -0.8628080000    -1.9787430000     2.3696830000
    8      H      -1.0833680000    -2.8786780000     2.9758830000
    9      H      -1.7935220000    -1.3760150000     2.3171420000
   10      H      -0.1163750000    -1.3757280000     2.9277870000
   11      H       0.4712510000    -4.7834370000    -1.2919900000
   12      C       0.0000000000     0.0000000000     0.0000000000
   13      C       0.6615770000     0.5550870000     1.0994460000
   14      C       1.7217240000     1.4446300000     0.7767210000
   15      H       0.3790560000     0.3180320000     2.1360880000
   16      C       1.8907720000     1.5864490000    -0.6125460000
   17      S       0.7219350000     0.6057440000    -1.4868090000
   18      C       2.5550040000     2.1438050000     1.8146090000
   19      H       2.2289460000     1.8702110000     2.8366760000
   20      H       2.4826050000     3.2479870000     1.7262390000
   21      H       3.6298300000     1.8807350000     1.7262280000
   22      H       2.6179270000     2.1965790000    -1.1615750000
 ----------------------------------------------------------------

   11   -1179.6315839688      4.88e-07  Convergence criterion met
 Total energy in the final basis set =    -1179.6315839688
        RIMP2         total energy =     -1181.6240438246 a.u.

                    Orbital Energies (a.u.)
 --------------------------------------------------------------

 Alpha MOs
 -- Occupied --
-91.9858 -91.9777 -11.2857 -11.2790 -11.2671 -11.2613 -11.2562 -11.2552
-11.2379 -11.2347 -11.2320 -11.2271  -8.9865  -8.9778  -6.6673  -6.6666
 -6.6662  -6.6586  -6.6580  -6.6573  -1.1902  -1.1462  -1.0471  -1.0227
 -0.9974  -0.9558  -0.9100  -0.8938  -0.8018  -0.7556  -0.7307  -0.6994
 -0.6551  -0.6170  -0.5958  -0.5819  -0.5704  -0.5608  -0.5504  -0.5419
 -0.5338  -0.5187  -0.5064  -0.4881  -0.4847  -0.4651  -0.4446  -0.3712
 -0.3452  -0.3319  -0.2634

          Ground-State Mulliken Net Atomic Charges

     Atom                 Charge (a.u.)
  ----------------------------------------
      1 C                    -0.258097
      2 C                    -0.239763
      3 C                     0.016531
      4 H                     0.180565
      5 C                     0.003127
      6 S                     0.006827
      7 C                    -0.305744
      8 H                     0.111831
      9 H                     0.111840
     10 H                     0.094821
     11 H                     0.200891
     12 C                    -0.070400
     13 C                    -0.136975
     14 C                    -0.011174
     15 H                     0.200604
     16 C                    -0.184835
     17 S                     0.023875
     18 C                    -0.267228
     19 H                     0.102430
     20 H                     0.108879
     21 H                     0.107797
     22 H                     0.204200
  ----------------------------------------
  Sum of atomic charges =     0.000000

                    Cartesian Multipole Moments
 -----------------------------------------------------------------
    Charge (ESU x 10^10)
                -0.0000
    Dipole Moment (Debye)
         X       1.9316      Y       1.5034      Z       2.8272
       Tot       3.7396
    Quadrupole Moments (Debye-Ang)
        XX     -84.3550     XY       7.1302     YY     -79.1847
        XZ      -1.3736     YZ      -1.6084     ZZ     -80.7451

 Total job time:  620.45s(wall), 617.49s(cpu)
        *  Thank you very much for using Q-Chem.  Have a nice day.  *
