 Q-Chem 5.4, Q-Chem, Inc., Pleasanton, CA (2021)
 Q-Chem 5.4.0 for Intel X86 EM64T Linux

User input:
--------------------------------------------------------------
$molecule
0 1
C	0.670924	-3.866725	0.388181
C	-0.530648	-3.703963	-0.306020
C	-0.923703	-2.357056	-0.533378
H	-1.128579	-4.561092	-0.651043
C	-0.000000	-1.440664	-0.000000
S	1.337567	-2.286957	0.772234
C	-2.183857	-1.978743	-1.261192
H	-2.742548	-2.878678	-1.583666
H	-1.970497	-1.376015	-2.168641
H	-2.863099	-1.375728	-0.623012
H	1.190530	-4.783437	0.688443
C	0.000000	0.000000	0.000000
C	0.149995	0.850475	1.099446
C	0.390327	2.213354	0.776721
H	0.085947	0.487279	2.136088
C	0.428665	2.430655	-0.612546
S	0.163670	0.928078	-1.486809
C	0.579235	3.284574	1.814609
H	0.505323	2.865404	2.836676
H	-0.185980	4.083890	1.726239
H	1.571698	3.773937	1.726228
H	0.593515	3.365448	-1.161575
$end

$rem
JOBTYPE		SP
EXCHANGE	HF
CORRELATION	pRIMP2
BASIS		cc-pvtz
METHOD		rimp2
AUX_BASIS	rimp2-cc-pvtz
SOLVENT_METHOD	PCM
PURECART	11111
SYMMETRY	false
MEM_TOTAL	110000
SCF_CONVERGENCE = 6
THRESH=10
$end

$solvent
dielectric 4.90
$end
--------------------------------------------------------------

             Standard Nuclear Orientation (Angstroms)
    I     Atom           X                Y                Z
 ----------------------------------------------------------------
    1      C       0.6709240000    -3.8667250000     0.3881810000
    2      C      -0.5306480000    -3.7039630000    -0.3060200000
    3      C      -0.9237030000    -2.3570560000    -0.5333780000
    4      H      -1.1285790000    -4.5610920000    -0.6510430000
    5      C       0.0000000000    -1.4406640000     0.0000000000
    6      S       1.3375670000    -2.2869570000     0.7722340000
    7      C      -2.1838570000    -1.9787430000    -1.2611920000
    8      H      -2.7425480000    -2.8786780000    -1.5836660000
    9      H      -1.9704970000    -1.3760150000    -2.1686410000
   10      H      -2.8630990000    -1.3757280000    -0.6230120000
   11      H       1.1905300000    -4.7834370000     0.6884430000
   12      C       0.0000000000     0.0000000000     0.0000000000
   13      C       0.1499950000     0.8504750000     1.0994460000
   14      C       0.3903270000     2.2133540000     0.7767210000
   15      H       0.0859470000     0.4872790000     2.1360880000
   16      C       0.4286650000     2.4306550000    -0.6125460000
   17      S       0.1636700000     0.9280780000    -1.4868090000
   18      C       0.5792350000     3.2845740000     1.8146090000
   19      H       0.5053230000     2.8654040000     2.8366760000
   20      H      -0.1859800000     4.0838900000     1.7262390000
   21      H       1.5716980000     3.7739370000     1.7262280000
   22      H       0.5935150000     3.3654480000    -1.1615750000
 ----------------------------------------------------------------

   10   -1179.6853389387      5.11e-07  Convergence criterion met
 Total energy in the final basis set =    -1179.6853389387
        RIMP2         total energy =     -1181.6636700301 a.u.

                    Orbital Energies (a.u.)
 --------------------------------------------------------------

 Alpha MOs
 -- Occupied --
-91.9854 -91.9852 -11.2795 -11.2737 -11.2721 -11.2650 -11.2530 -11.2512
-11.2422 -11.2421 -11.2294 -11.2289  -8.9849  -8.9847  -6.6658  -6.6656
 -6.6652  -6.6651  -6.6646  -6.6645  -1.1792  -1.1497  -1.0405  -1.0233
 -0.9982  -0.9529  -0.9144  -0.8924  -0.8005  -0.7584  -0.7263  -0.6940
 -0.6626  -0.6164  -0.5829  -0.5786  -0.5733  -0.5695  -0.5520  -0.5332
 -0.5271  -0.5194  -0.5078  -0.4939  -0.4878  -0.4665  -0.4600  -0.3447
 -0.3430  -0.3357  -0.2888

          Ground-State Mulliken Net Atomic Charges

     Atom                 Charge (a.u.)
  ----------------------------------------
      1 C                    -0.212032
      2 C                    -0.248667
      3 C                     0.034283
      4 H                     0.184147
      5 C                    -0.034025
      6 S                     0.024796
      7 C                    -0.284970
      8 H                     0.108221
      9 H                     0.109698
     10 H                     0.111656
     11 H                     0.204616
     12 C                     0.012754
     13 C                    -0.261257
     14 C                     0.030820
     15 H                     0.188718
     16 C                    -0.240747
     17 S                     0.025997
     18 C                    -0.271252
     19 H                     0.102820
     20 H                     0.107935
     21 H                     0.108543
     22 H                     0.197946
  ----------------------------------------
  Sum of atomic charges =     0.000000

                    Cartesian Multipole Moments
 -----------------------------------------------------------------
    Charge (ESU x 10^10)
                -0.0000
    Dipole Moment (Debye)
         X      -0.9574      Y       0.2307      Z       0.6800
       Tot       1.1967
    Quadrupole Moments (Debye-Ang)
        XX     -87.4494     XY       3.7074     YY     -69.0187
        XZ       3.0862     YZ       2.0815     ZZ     -85.0353

 Total job time:  556.08s(wall), 551.82s(cpu)
        *  Thank you very much for using Q-Chem.  Have a nice day.  *
