 Q-Chem 5.4, Q-Chem, Inc., Pleasanton, CA (2021)
 Q-Chem 5.4.0 for Intel X86 EM64T Linux

User input:
--------------------------------------------------------------
$molecule
0 1
C	0.728625	-3.866725	-0.264439
C	-0.575519	-3.703963	0.209794
C	-1.002336	-2.357056	0.364749
H	-1.224165	-4.561092	0.446060
C	0.000000	-1.440664	0.000000
S	1.451336	-2.286957	-0.528253
C	-2.369885	-1.978743	0.862253
H	-2.976034	-2.878678	1.082953
H	-2.927887	-1.376015	0.115513
H	-2.317620	-1.375728	1.792797
H	1.292636	-4.783437	-0.469476
C	0.000000	0.000000	0.000000
C	0.431829	0.747884	1.099446
C	1.123799	1.946373	0.776721
H	0.247423	0.428497	2.136088
C	1.234147	2.137457	-0.612546
S	0.471221	0.816130	-1.486809
C	1.667694	2.888380	1.814609
H	1.454874	2.519768	2.836676
H	1.222009	3.901210	1.726239
H	2.767675	3.008788	1.726228
H	1.708773	2.959493	-1.161575
$end

$rem
JOBTYPE		SP
EXCHANGE	HF
CORRELATION	pRIMP2
BASIS		cc-pvtz
METHOD		rimp2
AUX_BASIS	rimp2-cc-pvtz
SOLVENT_METHOD	PCM
PURECART	11111
SYMMETRY	false
MEM_TOTAL	110000
SCF_CONVERGENCE = 6
THRESH=10
$end

$solvent
dielectric 4.90
$end
--------------------------------------------------------------

             Standard Nuclear Orientation (Angstroms)
    I     Atom           X                Y                Z
 ----------------------------------------------------------------
    1      C       0.7286250000    -3.8667250000    -0.2644390000
    2      C      -0.5755190000    -3.7039630000     0.2097940000
    3      C      -1.0023360000    -2.3570560000     0.3647490000
    4      H      -1.2241650000    -4.5610920000     0.4460600000
    5      C       0.0000000000    -1.4406640000     0.0000000000
    6      S       1.4513360000    -2.2869570000    -0.5282530000
    7      C      -2.3698850000    -1.9787430000     0.8622530000
    8      H      -2.9760340000    -2.8786780000     1.0829530000
    9      H      -2.9278870000    -1.3760150000     0.1155130000
   10      H      -2.3176200000    -1.3757280000     1.7927970000
   11      H       1.2926360000    -4.7834370000    -0.4694760000
   12      C       0.0000000000     0.0000000000     0.0000000000
   13      C       0.4318290000     0.7478840000     1.0994460000
   14      C       1.1237990000     1.9463730000     0.7767210000
   15      H       0.2474230000     0.4284970000     2.1360880000
   16      C       1.2341470000     2.1374570000    -0.6125460000
   17      S       0.4712210000     0.8161300000    -1.4868090000
   18      C       1.6676940000     2.8883800000     1.8146090000
   19      H       1.4548740000     2.5197680000     2.8366760000
   20      H       1.2220090000     3.9012100000     1.7262390000
   21      H       2.7676750000     3.0087880000     1.7262280000
   22      H       1.7087730000     2.9594930000    -1.1615750000
 ----------------------------------------------------------------

   10   -1179.6684880625      5.22e-07  Convergence criterion met
 Total energy in the final basis set =    -1179.6684880625
        RIMP2         total energy =     -1181.6505169589 a.u.

                    Orbital Energies (a.u.)
 --------------------------------------------------------------

 Alpha MOs
 -- Occupied --
-91.9850 -91.9821 -11.2731 -11.2721 -11.2707 -11.2688 -11.2517 -11.2483
-11.2476 -11.2398 -11.2295 -11.2282  -8.9848  -8.9818  -6.6656  -6.6650
 -6.6645  -6.6627  -6.6622  -6.6615  -1.1806  -1.1485  -1.0414  -1.0217
 -0.9967  -0.9541  -0.9117  -0.8922  -0.8002  -0.7507  -0.7336  -0.6940
 -0.6603  -0.6167  -0.5837  -0.5792  -0.5696  -0.5683  -0.5512  -0.5322
 -0.5310  -0.5187  -0.5085  -0.4907  -0.4789  -0.4676  -0.4606  -0.3536
 -0.3358  -0.3246  -0.2928

          Ground-State Mulliken Net Atomic Charges

     Atom                 Charge (a.u.)
  ----------------------------------------
      1 C                    -0.213482
      2 C                    -0.251590
      3 C                     0.052978
      4 H                     0.182181
      5 C                    -0.057194
      6 S                     0.027299
      7 C                    -0.284544
      8 H                     0.106872
      9 H                     0.110396
     10 H                     0.107407
     11 H                     0.203645
     12 C                    -0.031541
     13 C                    -0.202562
     14 C                     0.016123
     15 H                     0.185737
     16 C                    -0.221950
     17 S                     0.023087
     18 C                    -0.269642
     19 H                     0.102690
     20 H                     0.107829
     21 H                     0.107737
     22 H                     0.198524
  ----------------------------------------
  Sum of atomic charges =     0.000000

                    Cartesian Multipole Moments
 -----------------------------------------------------------------
    Charge (ESU x 10^10)
                -0.0000
    Dipole Moment (Debye)
         X      -0.2294      Y       0.5621      Z       1.9976
       Tot       2.0878
    Quadrupole Moments (Debye-Ang)
        XX     -84.2356     XY       6.9027     YY     -72.3142
        XZ      -1.5605     YZ       0.0652     ZZ     -85.7079

 Total job time:  552.52s(wall), 548.68s(cpu)
        *  Thank you very much for using Q-Chem.  Have a nice day.  *
