 Q-Chem 5.4, Q-Chem, Inc., Pleasanton, CA (2021)
 Q-Chem 5.4.0 for Intel X86 EM64T Linux

User input:
--------------------------------------------------------------
$molecule
0 1
C	-0.763475	-3.866725	0.133897
C	0.603206	-3.703963	-0.106669
C	1.050446	-2.357056	-0.185154
H	1.283024	-4.561092	-0.226709
C	-0.000000	-1.440664	-0.000000
S	-1.521018	-2.286957	0.268206
C	2.483610	-1.978743	-0.437628
H	3.118875	-2.878678	-0.549717
H	2.903464	-1.376015	0.394664
H	2.593726	-1.375728	-1.363110
H	-1.354522	-4.783437	0.237880
C	0.000000	0.000000	0.000000
C	0.075300	0.860311	1.099446
C	0.195935	2.238951	0.776721
H	0.043151	0.492916	2.136088
C	0.215188	2.458766	-0.612546
S	0.082160	0.938811	-1.486809
C	0.290762	3.322559	1.814609
H	0.253664	2.898542	2.836676
H	-0.541206	4.052140	1.726239
H	1.236797	3.896558	1.726228
H	0.297938	3.404370	-1.161575
$end

$rem
JOBTYPE		SP
EXCHANGE	HF
CORRELATION	pRIMP2
BASIS		cc-pvtz
METHOD		rimp2
AUX_BASIS	rimp2-cc-pvtz
SOLVENT_METHOD	PCM
PURECART	11111
SYMMETRY	false
MEM_TOTAL	110000
SCF_CONVERGENCE = 6
THRESH=10
$end

$solvent
dielectric 4.90
$end
--------------------------------------------------------------

             Standard Nuclear Orientation (Angstroms)
    I     Atom           X                Y                Z
 ----------------------------------------------------------------
    1      C      -0.7634750000    -3.8667250000     0.1338970000
    2      C       0.6032060000    -3.7039630000    -0.1066690000
    3      C       1.0504460000    -2.3570560000    -0.1851540000
    4      H       1.2830240000    -4.5610920000    -0.2267090000
    5      C       0.0000000000    -1.4406640000     0.0000000000
    6      S      -1.5210180000    -2.2869570000     0.2682060000
    7      C       2.4836100000    -1.9787430000    -0.4376280000
    8      H       3.1188750000    -2.8786780000    -0.5497170000
    9      H       2.9034640000    -1.3760150000     0.3946640000
   10      H       2.5937260000    -1.3757280000    -1.3631100000
   11      H      -1.3545220000    -4.7834370000     0.2378800000
   12      C       0.0000000000     0.0000000000     0.0000000000
   13      C       0.0753000000     0.8603110000     1.0994460000
   14      C       0.1959350000     2.2389510000     0.7767210000
   15      H       0.0431510000     0.4929160000     2.1360880000
   16      C       0.2151880000     2.4587660000    -0.6125460000
   17      S       0.0821600000     0.9388110000    -1.4868090000
   18      C       0.2907620000     3.3225590000     1.8146090000
   19      H       0.2536640000     2.8985420000     2.8366760000
   20      H      -0.5412060000     4.0521400000     1.7262390000
   21      H       1.2367970000     3.8965580000     1.7262280000
   22      H       0.2979380000     3.4043700000    -1.1615750000
 ----------------------------------------------------------------

   10   -1179.6852067880      5.04e-07  Convergence criterion met
 Total energy in the final basis set =    -1179.6852067880
        RIMP2         total energy =     -1181.6633074329 a.u.

                    Orbital Energies (a.u.)
 --------------------------------------------------------------

 Alpha MOs
 -- Occupied --
-91.9854 -91.9844 -11.2787 -11.2730 -11.2722 -11.2649 -11.2541 -11.2509
-11.2427 -11.2419 -11.2291 -11.2290  -8.9848  -8.9840  -6.6657  -6.6652
 -6.6649  -6.6646  -6.6643  -6.6637  -1.1784  -1.1496  -1.0400  -1.0228
 -0.9975  -0.9539  -0.9136  -0.8921  -0.8005  -0.7551  -0.7294  -0.6950
 -0.6623  -0.6163  -0.5821  -0.5789  -0.5719  -0.5693  -0.5519  -0.5315
 -0.5289  -0.5199  -0.5083  -0.4922  -0.4877  -0.4647  -0.4617  -0.3451
 -0.3399  -0.3206  -0.3038

          Ground-State Mulliken Net Atomic Charges

     Atom                 Charge (a.u.)
  ----------------------------------------
      1 C                    -0.215499
      2 C                    -0.247521
      3 C                     0.044367
      4 H                     0.184336
      5 C                    -0.038520
      6 S                     0.026873
      7 C                    -0.280426
      8 H                     0.107789
      9 H                     0.110430
     10 H                     0.110046
     11 H                     0.204236
     12 C                    -0.018321
     13 C                    -0.228950
     14 C                     0.018557
     15 H                     0.186738
     16 C                    -0.237454
     17 S                     0.027875
     18 C                    -0.271231
     19 H                     0.102760
     20 H                     0.108331
     21 H                     0.107844
     22 H                     0.197741
  ----------------------------------------
  Sum of atomic charges =     0.000000

                    Cartesian Multipole Moments
 -----------------------------------------------------------------
    Charge (ESU x 10^10)
                -0.0000
    Dipole Moment (Debye)
         X       1.6565      Y       0.2650      Z       1.1763
       Tot       2.0489
    Quadrupole Moments (Debye-Ang)
        XX     -86.2886     XY      -1.1729     YY     -68.8652
        XZ      -1.0586     YZ       1.4126     ZZ     -86.5179

 Total job time:  554.60s(wall), 550.30s(cpu)
        *  Thank you very much for using Q-Chem.  Have a nice day.  *
