 Q-Chem 5.4, Q-Chem, Inc., Pleasanton, CA (2021)
 Q-Chem 5.4.0 for Intel X86 EM64T Linux

User input:
--------------------------------------------------------------
$molecule
0 1
C	-0.386946	-3.866725	-0.671636
C	0.306544	-3.703963	0.530345
C	0.533261	-2.357056	0.923770
H	0.651857	-4.561092	1.128109
C	0.000000	-1.440664	0.000000
S	-0.772250	-2.286957	-1.337557
C	1.260680	-1.978743	2.184153
H	1.583283	-2.878678	2.742769
H	0.622180	-1.376015	2.863347
H	2.168011	-1.375728	1.971094
H	-0.686807	-4.783437	-1.191474
C	0.000000	0.000000	0.000000
C	0.661577	0.555087	1.099446
C	1.721724	1.444630	0.776721
H	0.379056	0.318032	2.136088
C	1.890772	1.586449	-0.612546
S	0.721935	0.605744	-1.486809
C	2.555004	2.143805	1.814609
H	2.228946	1.870211	2.836676
H	2.482605	3.247987	1.726239
H	3.629830	1.880735	1.726228
H	2.617927	2.196579	-1.161575
$end

$rem
JOBTYPE		SP
EXCHANGE	HF
CORRELATION	pRIMP2
BASIS		cc-pvtz
METHOD		rimp2
AUX_BASIS	rimp2-cc-pvtz
SOLVENT_METHOD	PCM
PURECART	11111
SYMMETRY	false
MEM_TOTAL	110000
SCF_CONVERGENCE = 6
THRESH=10
$end

$solvent
dielectric 4.90
$end
--------------------------------------------------------------

             Standard Nuclear Orientation (Angstroms)
    I     Atom           X                Y                Z
 ----------------------------------------------------------------
    1      C      -0.3869460000    -3.8667250000    -0.6716360000
    2      C       0.3065440000    -3.7039630000     0.5303450000
    3      C       0.5332610000    -2.3570560000     0.9237700000
    4      H       0.6518570000    -4.5610920000     1.1281090000
    5      C       0.0000000000    -1.4406640000     0.0000000000
    6      S      -0.7722500000    -2.2869570000    -1.3375570000
    7      C       1.2606800000    -1.9787430000     2.1841530000
    8      H       1.5832830000    -2.8786780000     2.7427690000
    9      H       0.6221800000    -1.3760150000     2.8633470000
   10      H       2.1680110000    -1.3757280000     1.9710940000
   11      H      -0.6868070000    -4.7834370000    -1.1914740000
   12      C       0.0000000000     0.0000000000     0.0000000000
   13      C       0.6615770000     0.5550870000     1.0994460000
   14      C       1.7217240000     1.4446300000     0.7767210000
   15      H       0.3790560000     0.3180320000     2.1360880000
   16      C       1.8907720000     1.5864490000    -0.6125460000
   17      S       0.7219350000     0.6057440000    -1.4868090000
   18      C       2.5550040000     2.1438050000     1.8146090000
   19      H       2.2289460000     1.8702110000     2.8366760000
   20      H       2.4826050000     3.2479870000     1.7262390000
   21      H       3.6298300000     1.8807350000     1.7262280000
   22      H       2.6179270000     2.1965790000    -1.1615750000
 ----------------------------------------------------------------

   11   -1179.6317981543      4.54e-07  Convergence criterion met
 Total energy in the final basis set =    -1179.6317981543
        RIMP2         total energy =     -1181.6246627497 a.u.

                    Orbital Energies (a.u.)
 --------------------------------------------------------------

 Alpha MOs
 -- Occupied --
-91.9832 -91.9751 -11.2830 -11.2772 -11.2636 -11.2628 -11.2563 -11.2538
-11.2431 -11.2392 -11.2316 -11.2282  -8.9837  -8.9757  -6.6645  -6.6637
 -6.6633  -6.6567  -6.6561  -6.6554  -1.1880  -1.1471  -1.0453  -1.0251
 -0.9964  -0.9535  -0.9136  -0.8936  -0.7977  -0.7557  -0.7323  -0.7020
 -0.6554  -0.6168  -0.5958  -0.5835  -0.5702  -0.5604  -0.5497  -0.5412
 -0.5283  -0.5238  -0.5066  -0.4883  -0.4762  -0.4648  -0.4508  -0.3603
 -0.3456  -0.3355  -0.2685

          Ground-State Mulliken Net Atomic Charges

     Atom                 Charge (a.u.)
  ----------------------------------------
      1 C                    -0.222783
      2 C                    -0.257201
      3 C                     0.042738
      4 H                     0.182445
      5 C                    -0.003940
      6 S                    -0.006136
      7 C                    -0.300806
      8 H                     0.114998
      9 H                     0.099831
     10 H                     0.115410
     11 H                     0.202804
     12 C                    -0.082990
     13 C                    -0.199305
     14 C                     0.016866
     15 H                     0.201021
     16 C                    -0.198735
     17 S                     0.040176
     18 C                    -0.273055
     19 H                     0.103896
     20 H                     0.114534
     21 H                     0.108053
     22 H                     0.202180
  ----------------------------------------
  Sum of atomic charges =     0.000000

                    Cartesian Multipole Moments
 -----------------------------------------------------------------
    Charge (ESU x 10^10)
                -0.0000
    Dipole Moment (Debye)
         X       3.0358      Y       0.9209      Z       2.9814
       Tot       4.3535
    Quadrupole Moments (Debye-Ang)
        XX     -83.7735     XY       4.9509     YY     -77.4670
        XZ       3.1694     YZ      -1.4552     ZZ     -81.7207

 Total job time:  641.73s(wall), 636.89s(cpu)
        *  Thank you very much for using Q-Chem.  Have a nice day.  *
