 Q-Chem 5.4, Q-Chem, Inc., Pleasanton, CA (2021)
 Q-Chem 5.4.0 for Intel X86 EM64T Linux

User input:
--------------------------------------------------------------
$molecule
0 1
C	0.498788	-3.866725	-0.593324
C	-0.393517	-3.703963	0.469446
C	-0.685674	-2.357056	0.817050
H	-0.837128	-4.561092	0.998381
C	0.000000	-1.440664	0.000000
S	0.992768	-2.286957	-1.183149
C	-1.621254	-1.978743	1.931676
H	-2.035845	-2.878678	2.425882
H	-2.477868	-1.376015	1.563980
H	-1.110719	-1.375728	2.711417
H	0.884718	-4.783437	-1.052896
C	0.000000	0.000000	0.000000
C	0.295399	0.811508	1.099446
C	0.768742	2.111949	0.776721
H	0.169256	0.464952	2.136088
C	0.844232	2.319291	-0.612546
S	0.322342	0.885558	-1.486809
C	1.140796	3.134091	1.814609
H	0.995218	2.734123	2.836676
H	0.526006	4.054142	1.726239
H	2.203157	3.443680	1.726228
H	1.168902	3.211257	-1.161575
$end

$rem
JOBTYPE		SP
EXCHANGE	HF
CORRELATION	pRIMP2
BASIS		cc-pvtz
METHOD		rimp2
AUX_BASIS	rimp2-cc-pvtz
SOLVENT_METHOD	PCM
PURECART	11111
SYMMETRY	false
MEM_TOTAL	110000
SCF_CONVERGENCE = 6
THRESH=10
$end

$solvent
dielectric 4.90
$end
--------------------------------------------------------------

             Standard Nuclear Orientation (Angstroms)
    I     Atom           X                Y                Z
 ----------------------------------------------------------------
    1      C       0.4987880000    -3.8667250000    -0.5933240000
    2      C      -0.3935170000    -3.7039630000     0.4694460000
    3      C      -0.6856740000    -2.3570560000     0.8170500000
    4      H      -0.8371280000    -4.5610920000     0.9983810000
    5      C       0.0000000000    -1.4406640000     0.0000000000
    6      S       0.9927680000    -2.2869570000    -1.1831490000
    7      C      -1.6212540000    -1.9787430000     1.9316760000
    8      H      -2.0358450000    -2.8786780000     2.4258820000
    9      H      -2.4778680000    -1.3760150000     1.5639800000
   10      H      -1.1107190000    -1.3757280000     2.7114170000
   11      H       0.8847180000    -4.7834370000    -1.0528960000
   12      C       0.0000000000     0.0000000000     0.0000000000
   13      C       0.2953990000     0.8115080000     1.0994460000
   14      C       0.7687420000     2.1119490000     0.7767210000
   15      H       0.1692560000     0.4649520000     2.1360880000
   16      C       0.8442320000     2.3192910000    -0.6125460000
   17      S       0.3223420000     0.8855580000    -1.4868090000
   18      C       1.1407960000     3.1340910000     1.8146090000
   19      H       0.9952180000     2.7341230000     2.8366760000
   20      H       0.5260060000     4.0541420000     1.7262390000
   21      H       2.2031570000     3.4436800000     1.7262280000
   22      H       1.1689020000     3.2112570000    -1.1615750000
 ----------------------------------------------------------------

   10   -1179.6788432190      4.92e-07  Convergence criterion met
 Total energy in the final basis set =    -1179.6788432190
        RIMP2         total energy =     -1181.6597131626 a.u.

                    Orbital Energies (a.u.)
 --------------------------------------------------------------

 Alpha MOs
 -- Occupied --
-91.9865 -91.9846 -11.2801 -11.2766 -11.2691 -11.2670 -11.2527 -11.2498
-11.2442 -11.2421 -11.2297 -11.2296  -8.9862  -8.9843  -6.6671  -6.6665
 -6.6659  -6.6652  -6.6646  -6.6640  -1.1812  -1.1497  -1.0421  -1.0244
 -0.9963  -0.9562  -0.9124  -0.8937  -0.8025  -0.7538  -0.7304  -0.6975
 -0.6612  -0.6152  -0.5871  -0.5806  -0.5700  -0.5652  -0.5522  -0.5368
 -0.5304  -0.5209  -0.5073  -0.4909  -0.4845  -0.4740  -0.4554  -0.3607
 -0.3418  -0.3381  -0.2758

          Ground-State Mulliken Net Atomic Charges

     Atom                 Charge (a.u.)
  ----------------------------------------
      1 C                    -0.221069
      2 C                    -0.247664
      3 C                     0.036399
      4 H                     0.183561
      5 C                    -0.028451
      6 S                     0.019814
      7 C                    -0.293404
      8 H                     0.110345
      9 H                     0.112474
     10 H                     0.106226
     11 H                     0.204731
     12 C                    -0.004126
     13 C                    -0.213258
     14 C                     0.012798
     15 H                     0.193056
     16 C                    -0.228166
     17 S                     0.010061
     18 C                    -0.271748
     19 H                     0.102082
     20 H                     0.108472
     21 H                     0.108569
     22 H                     0.199299
  ----------------------------------------
  Sum of atomic charges =     0.000000

                    Cartesian Multipole Moments
 -----------------------------------------------------------------
    Charge (ESU x 10^10)
                -0.0000
    Dipole Moment (Debye)
         X      -0.2214      Y       0.4669      Z       2.5754
       Tot       2.6267
    Quadrupole Moments (Debye-Ang)
        XX     -88.7438     XY       4.9500     YY     -70.4300
        XZ      -2.8272     YZ      -0.7179     ZZ     -82.7844

 Total job time:  548.91s(wall), 545.44s(cpu)
        *  Thank you very much for using Q-Chem.  Have a nice day.  *
