 Q-Chem 5.4, Q-Chem, Inc., Pleasanton, CA (2021)
 Q-Chem 5.4.0 for Intel X86 EM64T Linux

User input:
--------------------------------------------------------------
$molecule
0 1
C	0.265779	-3.866725	-0.728138
C	-0.209225	-3.703963	0.575726
C	-0.364875	-2.357056	1.002290
H	-0.445176	-4.561092	1.224486
C	0.000000	-1.440664	0.000000
S	0.528236	-2.286957	-1.451343
C	-0.862808	-1.978743	2.369683
H	-1.083368	-2.878678	2.975883
H	-1.793522	-1.376015	2.317142
H	-0.116375	-1.375728	2.927787
H	0.471251	-4.783437	-1.291990
C	0.000000	0.000000	0.000000
C	0.431829	0.747884	1.099446
C	1.123799	1.946373	0.776721
H	0.247423	0.428497	2.136088
C	1.234147	2.137457	-0.612546
S	0.471221	0.816130	-1.486809
C	1.667694	2.888380	1.814609
H	1.454874	2.519768	2.836676
H	1.222009	3.901210	1.726239
H	2.767675	3.008788	1.726228
H	1.708773	2.959493	-1.161575
$end

$rem
JOBTYPE		SP
EXCHANGE	HF
CORRELATION	pRIMP2
BASIS		cc-pvtz
METHOD		rimp2
AUX_BASIS	rimp2-cc-pvtz
SOLVENT_METHOD	PCM
PURECART	11111
SYMMETRY	false
MEM_TOTAL	110000
SCF_CONVERGENCE = 6
THRESH=10
$end

$solvent
dielectric 4.90
$end
--------------------------------------------------------------

             Standard Nuclear Orientation (Angstroms)
    I     Atom           X                Y                Z
 ----------------------------------------------------------------
    1      C       0.2657790000    -3.8667250000    -0.7281380000
    2      C      -0.2092250000    -3.7039630000     0.5757260000
    3      C      -0.3648750000    -2.3570560000     1.0022900000
    4      H      -0.4451760000    -4.5610920000     1.2244860000
    5      C       0.0000000000    -1.4406640000     0.0000000000
    6      S       0.5282360000    -2.2869570000    -1.4513430000
    7      C      -0.8628080000    -1.9787430000     2.3696830000
    8      H      -1.0833680000    -2.8786780000     2.9758830000
    9      H      -1.7935220000    -1.3760150000     2.3171420000
   10      H      -0.1163750000    -1.3757280000     2.9277870000
   11      H       0.4712510000    -4.7834370000    -1.2919900000
   12      C       0.0000000000     0.0000000000     0.0000000000
   13      C       0.4318290000     0.7478840000     1.0994460000
   14      C       1.1237990000     1.9463730000     0.7767210000
   15      H       0.2474230000     0.4284970000     2.1360880000
   16      C       1.2341470000     2.1374570000    -0.6125460000
   17      S       0.4712210000     0.8161300000    -1.4868090000
   18      C       1.6676940000     2.8883800000     1.8146090000
   19      H       1.4548740000     2.5197680000     2.8366760000
   20      H       1.2220090000     3.9012100000     1.7262390000
   21      H       2.7676750000     3.0087880000     1.7262280000
   22      H       1.7087730000     2.9594930000    -1.1615750000
 ----------------------------------------------------------------

   10   -1179.6669772500      5.28e-07  Convergence criterion met
 Total energy in the final basis set =    -1179.6669772500
        RIMP2         total energy =     -1181.6516674129 a.u.

                    Orbital Energies (a.u.)
 --------------------------------------------------------------

 Alpha MOs
 -- Occupied --
-91.9860 -91.9827 -11.2788 -11.2779 -11.2713 -11.2660 -11.2538 -11.2475
-11.2465 -11.2416 -11.2303 -11.2299  -8.9861  -8.9826  -6.6670  -6.6664
 -6.6658  -6.6635  -6.6629  -6.6623  -1.1836  -1.1493  -1.0436  -1.0251
 -0.9962  -0.9566  -0.9123  -0.8944  -0.8025  -0.7553  -0.7292  -0.6998
 -0.6598  -0.6147  -0.5915  -0.5818  -0.5706  -0.5628  -0.5519  -0.5400
 -0.5313  -0.5214  -0.5061  -0.4902  -0.4832  -0.4762  -0.4495  -0.3694
 -0.3459  -0.3361  -0.2677

          Ground-State Mulliken Net Atomic Charges

     Atom                 Charge (a.u.)
  ----------------------------------------
      1 C                    -0.232096
      2 C                    -0.244360
      3 C                     0.039412
      4 H                     0.183059
      5 C                    -0.019521
      6 S                     0.011158
      7 C                    -0.310749
      8 H                     0.114885
      9 H                     0.115394
     10 H                     0.101856
     11 H                     0.204933
     12 C                    -0.004016
     13 C                    -0.207966
     14 C                     0.015101
     15 H                     0.194774
     16 C                    -0.223030
     17 S                     0.010509
     18 C                    -0.269915
     19 H                     0.101804
     20 H                     0.108956
     21 H                     0.108381
     22 H                     0.201432
  ----------------------------------------
  Sum of atomic charges =     0.000000

                    Cartesian Multipole Moments
 -----------------------------------------------------------------
    Charge (ESU x 10^10)
                -0.0000
    Dipole Moment (Debye)
         X       0.6708      Y       0.7266      Z       2.8346
       Tot       3.0021
    Quadrupole Moments (Debye-Ang)
        XX     -89.0252     XY       5.7901     YY     -72.5268
        XZ      -1.5866     YZ      -1.2755     ZZ     -80.8522

 Total job time:  562.61s(wall), 557.98s(cpu)
        *  Thank you very much for using Q-Chem.  Have a nice day.  *
