 Q-Chem 5.4, Q-Chem, Inc., Pleasanton, CA (2021)
 Q-Chem 5.4.0 for Intel X86 EM64T Linux

User input:
--------------------------------------------------------------
$molecule
0 1
C	0.497696	-3.866725	0.594240
C	-0.393981	-3.703963	-0.469057
C	-0.685571	-2.357056	-0.817136
H	-0.837848	-4.561092	-0.997777
C	0.000000	-1.440664	0.000000
S	0.992782	-2.286957	1.183137
C	-1.620802	-1.978743	-1.932056
H	-2.035506	-2.878678	-2.426166
H	-1.109943	-1.376015	-2.711806
H	-2.477350	-1.375728	-1.564678
H	0.883271	-4.783437	1.054110
C	0.000000	0.000000	0.000000
C	0.661577	0.555087	1.099446
C	1.721724	1.444630	0.776721
H	0.379056	0.318032	2.136088
C	1.890772	1.586449	-0.612546
S	0.721935	0.605744	-1.486809
C	2.555004	2.143805	1.814609
H	2.228946	1.870211	2.836676
H	2.482605	3.247987	1.726239
H	3.629830	1.880735	1.726228
H	2.617927	2.196579	-1.161575
$end

$rem
JOBTYPE		SP
EXCHANGE	HF
CORRELATION	pRIMP2
BASIS		cc-pvtz
METHOD		rimp2
AUX_BASIS	rimp2-cc-pvtz
SOLVENT_METHOD	PCM
PURECART	11111
SYMMETRY	false
MEM_TOTAL	110000
SCF_CONVERGENCE = 6
THRESH=10
$end

$solvent
dielectric 4.90
$end
--------------------------------------------------------------

             Standard Nuclear Orientation (Angstroms)
    I     Atom           X                Y                Z
 ----------------------------------------------------------------
    1      C       0.4976960000    -3.8667250000     0.5942400000
    2      C      -0.3939810000    -3.7039630000    -0.4690570000
    3      C      -0.6855710000    -2.3570560000    -0.8171360000
    4      H      -0.8378480000    -4.5610920000    -0.9977770000
    5      C       0.0000000000    -1.4406640000     0.0000000000
    6      S       0.9927820000    -2.2869570000     1.1831370000
    7      C      -1.6208020000    -1.9787430000    -1.9320560000
    8      H      -2.0355060000    -2.8786780000    -2.4261660000
    9      H      -1.1099430000    -1.3760150000    -2.7118060000
   10      H      -2.4773500000    -1.3757280000    -1.5646780000
   11      H       0.8832710000    -4.7834370000     1.0541100000
   12      C       0.0000000000     0.0000000000     0.0000000000
   13      C       0.6615770000     0.5550870000     1.0994460000
   14      C       1.7217240000     1.4446300000     0.7767210000
   15      H       0.3790560000     0.3180320000     2.1360880000
   16      C       1.8907720000     1.5864490000    -0.6125460000
   17      S       0.7219350000     0.6057440000    -1.4868090000
   18      C       2.5550040000     2.1438050000     1.8146090000
   19      H       2.2289460000     1.8702110000     2.8366760000
   20      H       2.4826050000     3.2479870000     1.7262390000
   21      H       3.6298300000     1.8807350000     1.7262280000
   22      H       2.6179270000     2.1965790000    -1.1615750000
 ----------------------------------------------------------------

   10   -1179.6393147139      6.71e-07  Convergence criterion met
 Total energy in the final basis set =    -1179.6393147139
        RIMP2         total energy =     -1181.6303527108 a.u.

                    Orbital Energies (a.u.)
 --------------------------------------------------------------

 Alpha MOs
 -- Occupied --
-91.9856 -91.9799 -11.2839 -11.2741 -11.2638 -11.2616 -11.2566 -11.2549
-11.2393 -11.2381 -11.2310 -11.2268  -8.9858  -8.9798  -6.6666  -6.6659
 -6.6654  -6.6607  -6.6601  -6.6595  -1.1881  -1.1468  -1.0451  -1.0205
 -1.0020  -0.9485  -0.9148  -0.8915  -0.7978  -0.7628  -0.7276  -0.6897
 -0.6579  -0.6198  -0.5865  -0.5803  -0.5743  -0.5696  -0.5503  -0.5351
 -0.5285  -0.5162  -0.5076  -0.4943  -0.4717  -0.4688  -0.4546  -0.3533
 -0.3443  -0.3386  -0.2718

          Ground-State Mulliken Net Atomic Charges

     Atom                 Charge (a.u.)
  ----------------------------------------
      1 C                    -0.245196
      2 C                    -0.237406
      3 C                     0.007002
      4 H                     0.181970
      5 C                     0.011196
      6 S                     0.011077
      7 C                    -0.298553
      8 H                     0.109509
      9 H                     0.107733
     10 H                     0.109986
     11 H                     0.201619
     12 C                    -0.070722
     13 C                    -0.226197
     14 C                     0.030709
     15 H                     0.198994
     16 C                    -0.199103
     17 S                     0.050034
     18 C                    -0.265832
     19 H                     0.104079
     20 H                     0.109110
     21 H                     0.108269
     22 H                     0.201723
  ----------------------------------------
  Sum of atomic charges =     0.000000

                    Cartesian Multipole Moments
 -----------------------------------------------------------------
    Charge (ESU x 10^10)
                -0.0000
    Dipole Moment (Debye)
         X       1.3249      Y       0.9973      Z       0.4161
       Tot       1.7097
    Quadrupole Moments (Debye-Ang)
        XX     -82.7739     XY       7.7655     YY     -77.5407
        XZ       3.5512     YZ       2.3921     ZZ     -82.4674

 Total job time:  564.52s(wall), 561.66s(cpu)
        *  Thank you very much for using Q-Chem.  Have a nice day.  *
