 Q-Chem 5.4, Q-Chem, Inc., Pleasanton, CA (2021)
 Q-Chem 5.4.0 for Intel X86 EM64T Linux

User input:
--------------------------------------------------------------
$molecule
0 1
C	0.265779	-3.866725	-0.728138
C	-0.209225	-3.703963	0.575726
C	-0.364875	-2.357056	1.002290
H	-0.445176	-4.561092	1.224486
C	0.000000	-1.440664	0.000000
S	0.528236	-2.286957	-1.451343
C	-0.862808	-1.978743	2.369683
H	-1.083368	-2.878678	2.975883
H	-1.793522	-1.376015	2.317142
H	-0.116375	-1.375728	2.927787
H	0.471251	-4.783437	-1.291990
C	0.000000	0.000000	0.000000
C	0.747916	0.431772	1.099446
C	1.946425	1.123709	0.776721
H	0.428523	0.247378	2.136088
C	2.137531	1.234018	-0.612546
S	0.816154	0.471179	-1.486809
C	2.888455	1.667564	1.814609
H	2.519842	1.454746	2.836676
H	3.008896	2.767543	1.726239
H	3.901271	1.221850	1.726228
H	2.959587	1.708609	-1.161575
$end

$rem
JOBTYPE		SP
EXCHANGE	HF
CORRELATION	pRIMP2
BASIS		cc-pvtz
METHOD		rimp2
AUX_BASIS	rimp2-cc-pvtz
SOLVENT_METHOD	PCM
PURECART	11111
SYMMETRY	false
MEM_TOTAL	110000
SCF_CONVERGENCE = 6
THRESH=10
$end

$solvent
dielectric 4.90
$end
--------------------------------------------------------------

             Standard Nuclear Orientation (Angstroms)
    I     Atom           X                Y                Z
 ----------------------------------------------------------------
    1      C       0.2657790000    -3.8667250000    -0.7281380000
    2      C      -0.2092250000    -3.7039630000     0.5757260000
    3      C      -0.3648750000    -2.3570560000     1.0022900000
    4      H      -0.4451760000    -4.5610920000     1.2244860000
    5      C       0.0000000000    -1.4406640000     0.0000000000
    6      S       0.5282360000    -2.2869570000    -1.4513430000
    7      C      -0.8628080000    -1.9787430000     2.3696830000
    8      H      -1.0833680000    -2.8786780000     2.9758830000
    9      H      -1.7935220000    -1.3760150000     2.3171420000
   10      H      -0.1163750000    -1.3757280000     2.9277870000
   11      H       0.4712510000    -4.7834370000    -1.2919900000
   12      C       0.0000000000     0.0000000000     0.0000000000
   13      C       0.7479160000     0.4317720000     1.0994460000
   14      C       1.9464250000     1.1237090000     0.7767210000
   15      H       0.4285230000     0.2473780000     2.1360880000
   16      C       2.1375310000     1.2340180000    -0.6125460000
   17      S       0.8161540000     0.4711790000    -1.4868090000
   18      C       2.8884550000     1.6675640000     1.8146090000
   19      H       2.5198420000     1.4547460000     2.8366760000
   20      H       3.0088960000     2.7675430000     1.7262390000
   21      H       3.9012710000     1.2218500000     1.7262280000
   22      H       2.9595870000     1.7086090000    -1.1615750000
 ----------------------------------------------------------------

   11   -1179.6057801700      5.63e-07  Convergence criterion met
 Total energy in the final basis set =    -1179.6057801700
        RIMP2         total energy =     -1181.6027628251 a.u.

                    Orbital Energies (a.u.)
 --------------------------------------------------------------

 Alpha MOs
 -- Occupied --
-91.9860 -91.9750 -11.2954 -11.2800 -11.2710 -11.2588 -11.2579 -11.2484
-11.2356 -11.2331 -11.2281 -11.2255  -8.9871  -8.9752  -6.6678  -6.6670
 -6.6668  -6.6561  -6.6553  -6.6546  -1.1965  -1.1440  -1.0499  -1.0230
 -0.9981  -0.9552  -0.9089  -0.8933  -0.8024  -0.7577  -0.7308  -0.6990
 -0.6525  -0.6199  -0.5996  -0.5822  -0.5700  -0.5595  -0.5497  -0.5433
 -0.5357  -0.5174  -0.5066  -0.4892  -0.4847  -0.4570  -0.4415  -0.3725
 -0.3445  -0.3287  -0.2611

          Ground-State Mulliken Net Atomic Charges

     Atom                 Charge (a.u.)
  ----------------------------------------
      1 C                    -0.274092
      2 C                    -0.236992
      3 C                     0.003986
      4 H                     0.178942
      5 C                     0.009699
      6 S                     0.004775
      7 C                    -0.303224
      8 H                     0.110200
      9 H                     0.110029
     10 H                     0.090878
     11 H                     0.197986
     12 C                    -0.112022
     13 C                    -0.088423
     14 C                    -0.030711
     15 H                     0.204691
     16 C                    -0.159394
     17 S                     0.034108
     18 C                    -0.266093
     19 H                     0.103047
     20 H                     0.108880
     21 H                     0.107606
     22 H                     0.206125
  ----------------------------------------
  Sum of atomic charges =     0.000000

                    Cartesian Multipole Moments
 -----------------------------------------------------------------
    Charge (ESU x 10^10)
                -0.0000
    Dipole Moment (Debye)
         X       2.7314      Y       1.8147      Z       2.8082
       Tot       4.3174
    Quadrupole Moments (Debye-Ang)
        XX     -81.6135     XY       6.7857     YY     -83.0476
        XZ      -1.3746     YZ      -1.7104     ZZ     -80.5477

 Total job time:  643.81s(wall), 639.35s(cpu)
        *  Thank you very much for using Q-Chem.  Have a nice day.  *
