 Q-Chem 5.4, Q-Chem, Inc., Pleasanton, CA (2021)
 Q-Chem 5.4.0 for Intel X86 EM64T Linux

User input:
--------------------------------------------------------------
$molecule
0 1
C	0.386946	-3.866725	0.671636
C	-0.306544	-3.703963	-0.530345
C	-0.533261	-2.357056	-0.923770
H	-0.651857	-4.561092	-1.128109
C	-0.000000	-1.440664	-0.000000
S	0.772250	-2.286957	1.337557
C	-1.260680	-1.978743	-2.184153
H	-1.583283	-2.878678	-2.742769
H	-0.622180	-1.376015	-2.863347
H	-2.168011	-1.375728	-1.971094
H	0.686807	-4.783437	1.191474
C	0.000000	0.000000	0.000000
C	0.365003	0.782674	1.099446
C	0.949885	2.036912	0.776721
H	0.209135	0.448431	2.136088
C	1.043159	2.236886	-0.612546
S	0.398297	0.854094	-1.486809
C	1.409609	3.022738	1.814609
H	1.229726	2.636980	2.836676
H	0.877346	3.992870	1.726239
H	2.494910	3.238558	1.726228
H	1.444334	3.097160	-1.161575
$end

$rem
JOBTYPE		SP
EXCHANGE	HF
CORRELATION	pRIMP2
BASIS		cc-pvtz
METHOD		rimp2
AUX_BASIS	rimp2-cc-pvtz
SOLVENT_METHOD	PCM
PURECART	11111
SYMMETRY	false
MEM_TOTAL	110000
SCF_CONVERGENCE = 6
THRESH=10
$end

$solvent
dielectric 4.90
$end
--------------------------------------------------------------

             Standard Nuclear Orientation (Angstroms)
    I     Atom           X                Y                Z
 ----------------------------------------------------------------
    1      C       0.3869460000    -3.8667250000     0.6716360000
    2      C      -0.3065440000    -3.7039630000    -0.5303450000
    3      C      -0.5332610000    -2.3570560000    -0.9237700000
    4      H      -0.6518570000    -4.5610920000    -1.1281090000
    5      C       0.0000000000    -1.4406640000     0.0000000000
    6      S       0.7722500000    -2.2869570000     1.3375570000
    7      C      -1.2606800000    -1.9787430000    -2.1841530000
    8      H      -1.5832830000    -2.8786780000    -2.7427690000
    9      H      -0.6221800000    -1.3760150000    -2.8633470000
   10      H      -2.1680110000    -1.3757280000    -1.9710940000
   11      H       0.6868070000    -4.7834370000     1.1914740000
   12      C       0.0000000000     0.0000000000     0.0000000000
   13      C       0.3650030000     0.7826740000     1.0994460000
   14      C       0.9498850000     2.0369120000     0.7767210000
   15      H       0.2091350000     0.4484310000     2.1360880000
   16      C       1.0431590000     2.2368860000    -0.6125460000
   17      S       0.3982970000     0.8540940000    -1.4868090000
   18      C       1.4096090000     3.0227380000     1.8146090000
   19      H       1.2297260000     2.6369800000     2.8366760000
   20      H       0.8773460000     3.9928700000     1.7262390000
   21      H       2.4949100000     3.2385580000     1.7262280000
   22      H       1.4443340000     3.0971600000    -1.1615750000
 ----------------------------------------------------------------

   10   -1179.6760121949      5.19e-07  Convergence criterion met
 Total energy in the final basis set =    -1179.6760121949
        RIMP2         total energy =     -1181.6583805283 a.u.

                    Orbital Energies (a.u.)
 --------------------------------------------------------------

 Alpha MOs
 -- Occupied --
-91.9852 -91.9841 -11.2790 -11.2759 -11.2698 -11.2678 -11.2528 -11.2500
-11.2441 -11.2420 -11.2297 -11.2294  -8.9850  -8.9838  -6.6659  -6.6653
 -6.6647  -6.6647  -6.6642  -6.6635  -1.1819  -1.1495  -1.0423  -1.0241
 -0.9995  -0.9516  -0.9150  -0.8937  -0.7998  -0.7635  -0.7225  -0.6938
 -0.6621  -0.6166  -0.5839  -0.5788  -0.5783  -0.5700  -0.5522  -0.5344
 -0.5253  -0.5194  -0.5096  -0.4959  -0.4855  -0.4680  -0.4542  -0.3609
 -0.3433  -0.3409  -0.2721

          Ground-State Mulliken Net Atomic Charges

     Atom                 Charge (a.u.)
  ----------------------------------------
      1 C                    -0.219100
      2 C                    -0.246897
      3 C                     0.031715
      4 H                     0.183825
      5 C                    -0.011396
      6 S                     0.014663
      7 C                    -0.307797
      8 H                     0.112419
      9 H                     0.112006
     10 H                     0.116350
     11 H                     0.205106
     12 C                     0.040351
     13 C                    -0.309893
     14 C                     0.057540
     15 H                     0.185138
     16 C                    -0.250942
     17 S                     0.037007
     18 C                    -0.268792
     19 H                     0.103267
     20 H                     0.108287
     21 H                     0.109124
     22 H                     0.198019
  ----------------------------------------
  Sum of atomic charges =     0.000000

                    Cartesian Multipole Moments
 -----------------------------------------------------------------
    Charge (ESU x 10^10)
                -0.0000
    Dipole Moment (Debye)
         X       0.1336      Y       0.3720      Z       0.1414
       Tot       0.4198
    Quadrupole Moments (Debye-Ang)
        XX     -89.0577     XY       5.4626     YY     -70.9619
        XZ       3.3152     YZ       2.8901     ZZ     -81.5930

 Total job time:  576.41s(wall), 573.04s(cpu)
        *  Thank you very much for using Q-Chem.  Have a nice day.  *
