 Q-Chem 5.4, Q-Chem, Inc., Pleasanton, CA (2021)
 Q-Chem 5.4.0 for Intel X86 EM64T Linux

User input:
--------------------------------------------------------------
$molecule
0 1
C	0.670924	-3.866725	0.388181
C	-0.530648	-3.703963	-0.306020
C	-0.923703	-2.357056	-0.533378
H	-1.128579	-4.561092	-0.651043
C	-0.000000	-1.440664	-0.000000
S	1.337567	-2.286957	0.772234
C	-2.183857	-1.978743	-1.261192
H	-2.742548	-2.878678	-1.583666
H	-1.970497	-1.376015	-2.168641
H	-2.863099	-1.375728	-0.623012
H	1.190530	-4.783437	0.688443
C	0.000000	0.000000	0.000000
C	0.365003	0.782674	1.099446
C	0.949885	2.036912	0.776721
H	0.209135	0.448431	2.136088
C	1.043159	2.236886	-0.612546
S	0.398297	0.854094	-1.486809
C	1.409609	3.022738	1.814609
H	1.229726	2.636980	2.836676
H	0.877346	3.992870	1.726239
H	2.494910	3.238558	1.726228
H	1.444334	3.097160	-1.161575
$end

$rem
JOBTYPE		SP
EXCHANGE	HF
CORRELATION	pRIMP2
BASIS		cc-pvtz
METHOD		rimp2
AUX_BASIS	rimp2-cc-pvtz
SOLVENT_METHOD	PCM
PURECART	11111
SYMMETRY	false
MEM_TOTAL	110000
SCF_CONVERGENCE = 6
THRESH=10
$end

$solvent
dielectric 4.90
$end
--------------------------------------------------------------

             Standard Nuclear Orientation (Angstroms)
    I     Atom           X                Y                Z
 ----------------------------------------------------------------
    1      C       0.6709240000    -3.8667250000     0.3881810000
    2      C      -0.5306480000    -3.7039630000    -0.3060200000
    3      C      -0.9237030000    -2.3570560000    -0.5333780000
    4      H      -1.1285790000    -4.5610920000    -0.6510430000
    5      C       0.0000000000    -1.4406640000     0.0000000000
    6      S       1.3375670000    -2.2869570000     0.7722340000
    7      C      -2.1838570000    -1.9787430000    -1.2611920000
    8      H      -2.7425480000    -2.8786780000    -1.5836660000
    9      H      -1.9704970000    -1.3760150000    -2.1686410000
   10      H      -2.8630990000    -1.3757280000    -0.6230120000
   11      H       1.1905300000    -4.7834370000     0.6884430000
   12      C       0.0000000000     0.0000000000     0.0000000000
   13      C       0.3650030000     0.7826740000     1.0994460000
   14      C       0.9498850000     2.0369120000     0.7767210000
   15      H       0.2091350000     0.4484310000     2.1360880000
   16      C       1.0431590000     2.2368860000    -0.6125460000
   17      S       0.3982970000     0.8540940000    -1.4868090000
   18      C       1.4096090000     3.0227380000     1.8146090000
   19      H       1.2297260000     2.6369800000     2.8366760000
   20      H       0.8773460000     3.9928700000     1.7262390000
   21      H       2.4949100000     3.2385580000     1.7262280000
   22      H       1.4443340000     3.0971600000    -1.1615750000
 ----------------------------------------------------------------

   10   -1179.6760788906      5.07e-07  Convergence criterion met
 Total energy in the final basis set =    -1179.6760788906
        RIMP2         total energy =     -1181.6567676129 a.u.

                    Orbital Energies (a.u.)
 --------------------------------------------------------------

 Alpha MOs
 -- Occupied --
-91.9846 -91.9842 -11.2754 -11.2725 -11.2706 -11.2685 -11.2516 -11.2503
-11.2448 -11.2410 -11.2292 -11.2290  -8.9843  -8.9838  -6.6652  -6.6647
 -6.6646  -6.6641  -6.6640  -6.6635  -1.1802  -1.1491  -1.0409  -1.0225
 -0.9984  -0.9519  -0.9142  -0.8920  -0.7996  -0.7581  -0.7272  -0.6927
 -0.6616  -0.6168  -0.5828  -0.5793  -0.5728  -0.5694  -0.5515  -0.5336
 -0.5270  -0.5187  -0.5080  -0.4935  -0.4834  -0.4664  -0.4600  -0.3455
 -0.3397  -0.3370  -0.2877

          Ground-State Mulliken Net Atomic Charges

     Atom                 Charge (a.u.)
  ----------------------------------------
      1 C                    -0.212909
      2 C                    -0.249918
      3 C                     0.039419
      4 H                     0.183103
      5 C                    -0.031732
      6 S                     0.025871
      7 C                    -0.285987
      8 H                     0.107861
      9 H                     0.108809
     10 H                     0.111130
     11 H                     0.204274
     12 C                     0.012630
     13 C                    -0.297505
     14 C                     0.053077
     15 H                     0.190043
     16 C                    -0.237502
     17 S                     0.030827
     18 C                    -0.269025
     19 H                     0.103027
     20 H                     0.107846
     21 H                     0.108474
     22 H                     0.198187
  ----------------------------------------
  Sum of atomic charges =     0.000000

                    Cartesian Multipole Moments
 -----------------------------------------------------------------
    Charge (ESU x 10^10)
                -0.0000
    Dipole Moment (Debye)
         X      -0.3810      Y       0.3631      Z       0.7169
       Tot       0.8894
    Quadrupole Moments (Debye-Ang)
        XX     -85.8101     XY       6.1508     YY     -70.9286
        XZ       3.2728     YZ       1.9818     ZZ     -84.9606

 Total job time:  547.63s(wall), 544.42s(cpu)
        *  Thank you very much for using Q-Chem.  Have a nice day.  *
