 Q-Chem 5.4, Q-Chem, Inc., Pleasanton, CA (2021)
 Q-Chem 5.4.0 for Intel X86 EM64T Linux

User input:
--------------------------------------------------------------
$molecule
0 1
C	-0.593324	-3.866725	-0.498788
C	0.469446	-3.703963	0.393517
C	0.817050	-2.357056	0.685674
H	0.998381	-4.561092	0.837128
C	0.000000	-1.440664	0.000000
S	-1.183149	-2.286957	-0.992768
C	1.931676	-1.978743	1.621254
H	2.425882	-2.878678	2.035845
H	1.563980	-1.376015	2.477868
H	2.711417	-1.375728	1.110719
H	-1.052896	-4.783437	-0.884718
C	0.000000	0.000000	0.000000
C	0.295399	0.811508	1.099446
C	0.768742	2.111949	0.776721
H	0.169256	0.464952	2.136088
C	0.844232	2.319291	-0.612546
S	0.322342	0.885558	-1.486809
C	1.140796	3.134091	1.814609
H	0.995218	2.734123	2.836676
H	0.526006	4.054142	1.726239
H	2.203157	3.443680	1.726228
H	1.168902	3.211257	-1.161575
$end

$rem
JOBTYPE		SP
EXCHANGE	HF
CORRELATION	pRIMP2
BASIS		cc-pvtz
METHOD		rimp2
AUX_BASIS	rimp2-cc-pvtz
SOLVENT_METHOD	PCM
PURECART	11111
SYMMETRY	false
MEM_TOTAL	110000
SCF_CONVERGENCE = 6
THRESH=10
$end

$solvent
dielectric 4.90
$end
--------------------------------------------------------------

             Standard Nuclear Orientation (Angstroms)
    I     Atom           X                Y                Z
 ----------------------------------------------------------------
    1      C      -0.5933240000    -3.8667250000    -0.4987880000
    2      C       0.4694460000    -3.7039630000     0.3935170000
    3      C       0.8170500000    -2.3570560000     0.6856740000
    4      H       0.9983810000    -4.5610920000     0.8371280000
    5      C       0.0000000000    -1.4406640000     0.0000000000
    6      S      -1.1831490000    -2.2869570000    -0.9927680000
    7      C       1.9316760000    -1.9787430000     1.6212540000
    8      H       2.4258820000    -2.8786780000     2.0358450000
    9      H       1.5639800000    -1.3760150000     2.4778680000
   10      H       2.7114170000    -1.3757280000     1.1107190000
   11      H      -1.0528960000    -4.7834370000    -0.8847180000
   12      C       0.0000000000     0.0000000000     0.0000000000
   13      C       0.2953990000     0.8115080000     1.0994460000
   14      C       0.7687420000     2.1119490000     0.7767210000
   15      H       0.1692560000     0.4649520000     2.1360880000
   16      C       0.8442320000     2.3192910000    -0.6125460000
   17      S       0.3223420000     0.8855580000    -1.4868090000
   18      C       1.1407960000     3.1340910000     1.8146090000
   19      H       0.9952180000     2.7341230000     2.8366760000
   20      H       0.5260060000     4.0541420000     1.7262390000
   21      H       2.2031570000     3.4436800000     1.7262280000
   22      H       1.1689020000     3.2112570000    -1.1615750000
 ----------------------------------------------------------------

   10   -1179.6789705398      5.27e-07  Convergence criterion met
 Total energy in the final basis set =    -1179.6789705398
        RIMP2         total energy =     -1181.6599564601 a.u.

                    Orbital Energies (a.u.)
 --------------------------------------------------------------

 Alpha MOs
 -- Occupied --
-91.9852 -91.9829 -11.2773 -11.2748 -11.2717 -11.2670 -11.2532 -11.2519
-11.2433 -11.2423 -11.2296 -11.2291  -8.9849  -8.9828  -6.6658  -6.6652
 -6.6646  -6.6637  -6.6632  -6.6626  -1.1801  -1.1496  -1.0412  -1.0240
 -0.9964  -0.9551  -0.9131  -0.8929  -0.8007  -0.7538  -0.7309  -0.6978
 -0.6612  -0.6155  -0.5859  -0.5803  -0.5709  -0.5649  -0.5515  -0.5356
 -0.5286  -0.5222  -0.5079  -0.4914  -0.4838  -0.4684  -0.4582  -0.3492
 -0.3417  -0.3404  -0.2823

          Ground-State Mulliken Net Atomic Charges

     Atom                 Charge (a.u.)
  ----------------------------------------
      1 C                    -0.212108
      2 C                    -0.250301
      3 C                     0.060064
      4 H                     0.184096
      5 C                    -0.032783
      6 S                     0.018345
      7 C                    -0.285598
      8 H                     0.112684
      9 H                     0.106688
     10 H                     0.115535
     11 H                     0.204918
     12 C                    -0.018067
     13 C                    -0.272347
     14 C                     0.042241
     15 H                     0.192911
     16 C                    -0.242328
     17 S                     0.028223
     18 C                    -0.270053
     19 H                     0.102319
     20 H                     0.108755
     21 H                     0.108264
     22 H                     0.198542
  ----------------------------------------
  Sum of atomic charges =     0.000000

                    Cartesian Multipole Moments
 -----------------------------------------------------------------
    Charge (ESU x 10^10)
                -0.0000
    Dipole Moment (Debye)
         X       1.8811      Y       0.3100      Z       2.4745
       Tot       3.1237
    Quadrupole Moments (Debye-Ang)
        XX     -87.6229     XY       1.9500     YY     -70.0409
        XZ       3.5325     YZ      -0.4578     ZZ     -84.0194

 Total job time:  554.40s(wall), 551.62s(cpu)
        *  Thank you very much for using Q-Chem.  Have a nice day.  *
