 Q-Chem 5.4, Q-Chem, Inc., Pleasanton, CA (2021)
 Q-Chem 5.4.0 for Intel X86 EM64T Linux

User input:
--------------------------------------------------------------
$molecule
0 1
C	0.265779	-3.866725	-0.728138
C	-0.209225	-3.703963	0.575726
C	-0.364875	-2.357056	1.002290
H	-0.445176	-4.561092	1.224486
C	-0.000000	-1.440664	-0.000000
S	0.528236	-2.286957	-1.451343
C	-0.862808	-1.978743	2.369683
H	-1.083368	-2.878678	2.975883
H	-1.793522	-1.376015	2.317142
H	-0.116375	-1.375728	2.927787
H	0.471251	-4.783437	-1.291990
C	0.000000	0.000000	0.000000
C	0.075300	0.860311	1.099446
C	0.195935	2.238951	0.776721
H	0.043151	0.492916	2.136088
C	0.215188	2.458766	-0.612546
S	0.082160	0.938811	-1.486809
C	0.290762	3.322559	1.814609
H	0.253664	2.898542	2.836676
H	-0.541206	4.052140	1.726239
H	1.236797	3.896558	1.726228
H	0.297938	3.404370	-1.161575
$end

$rem
JOBTYPE		SP
EXCHANGE	HF
CORRELATION	pRIMP2
BASIS		cc-pvtz
METHOD		rimp2
AUX_BASIS	rimp2-cc-pvtz
SOLVENT_METHOD	PCM
PURECART	11111
SYMMETRY	false
MEM_TOTAL	110000
SCF_CONVERGENCE = 6
THRESH=10
$end

$solvent
dielectric 4.90
$end
--------------------------------------------------------------

             Standard Nuclear Orientation (Angstroms)
    I     Atom           X                Y                Z
 ----------------------------------------------------------------
    1      C       0.2657790000    -3.8667250000    -0.7281380000
    2      C      -0.2092250000    -3.7039630000     0.5757260000
    3      C      -0.3648750000    -2.3570560000     1.0022900000
    4      H      -0.4451760000    -4.5610920000     1.2244860000
    5      C       0.0000000000    -1.4406640000     0.0000000000
    6      S       0.5282360000    -2.2869570000    -1.4513430000
    7      C      -0.8628080000    -1.9787430000     2.3696830000
    8      H      -1.0833680000    -2.8786780000     2.9758830000
    9      H      -1.7935220000    -1.3760150000     2.3171420000
   10      H      -0.1163750000    -1.3757280000     2.9277870000
   11      H       0.4712510000    -4.7834370000    -1.2919900000
   12      C       0.0000000000     0.0000000000     0.0000000000
   13      C       0.0753000000     0.8603110000     1.0994460000
   14      C       0.1959350000     2.2389510000     0.7767210000
   15      H       0.0431510000     0.4929160000     2.1360880000
   16      C       0.2151880000     2.4587660000    -0.6125460000
   17      S       0.0821600000     0.9388110000    -1.4868090000
   18      C       0.2907620000     3.3225590000     1.8146090000
   19      H       0.2536640000     2.8985420000     2.8366760000
   20      H      -0.5412060000     4.0521400000     1.7262390000
   21      H       1.2367970000     3.8965580000     1.7262280000
   22      H       0.2979380000     3.4043700000    -1.1615750000
 ----------------------------------------------------------------

   10   -1179.6854728566      5.20e-07  Convergence criterion met
 Total energy in the final basis set =    -1179.6854728566
        RIMP2         total energy =     -1181.6653325857 a.u.

                    Orbital Energies (a.u.)
 --------------------------------------------------------------

 Alpha MOs
 -- Occupied --
-91.9862 -91.9854 -11.2837 -11.2784 -11.2725 -11.2640 -11.2538 -11.2523
-11.2440 -11.2402 -11.2315 -11.2294  -8.9859  -8.9853  -6.6668  -6.6663
 -6.6663  -6.6657  -6.6656  -6.6651  -1.1815  -1.1504  -1.0420  -1.0273
 -0.9961  -0.9566  -0.9143  -0.8945  -0.8035  -0.7566  -0.7277  -0.7002
 -0.6625  -0.6144  -0.5900  -0.5820  -0.5702  -0.5639  -0.5523  -0.5395
 -0.5300  -0.5232  -0.5050  -0.4906  -0.4889  -0.4768  -0.4523  -0.3681
 -0.3465  -0.3383  -0.2706

          Ground-State Mulliken Net Atomic Charges

     Atom                 Charge (a.u.)
  ----------------------------------------
      1 C                    -0.214380
      2 C                    -0.253218
      3 C                     0.067680
      4 H                     0.184195
      5 C                    -0.047420
      6 S                     0.009846
      7 C                    -0.311431
      8 H                     0.116714
      9 H                     0.118096
     10 H                     0.106352
     11 H                     0.207076
     12 C                     0.026923
     13 C                    -0.232480
     14 C                     0.018389
     15 H                     0.194615
     16 C                    -0.245909
     17 S                     0.008160
     18 C                    -0.272159
     19 H                     0.101534
     20 H                     0.108631
     21 H                     0.109020
     22 H                     0.199767
  ----------------------------------------
  Sum of atomic charges =     0.000000

                    Cartesian Multipole Moments
 -----------------------------------------------------------------
    Charge (ESU x 10^10)
                -0.0000
    Dipole Moment (Debye)
         X      -0.3479      Y       0.1544      Z       2.8363
       Tot       2.8617
    Quadrupole Moments (Debye-Ang)
        XX     -91.9038     XY       1.6915     YY     -68.3811
        XZ      -2.0657     YZ      -1.0154     ZZ     -80.8438

 Total job time:  565.48s(wall), 560.51s(cpu)
        *  Thank you very much for using Q-Chem.  Have a nice day.  *
