 Q-Chem 5.4, Q-Chem, Inc., Pleasanton, CA (2021)
 Q-Chem 5.4.0 for Intel X86 EM64T Linux

User input:
--------------------------------------------------------------
$molecule
0 1
C	0.336297	-3.852073	0.775127
C	0.322520	-3.689895	-0.612565
C	0.205498	-2.348081	-1.066639
H	0.397057	-4.543777	-1.302900
C	0.125562	-1.435182	0.000000
S	0.199331	-2.278254	1.544483
C	0.172753	-1.971188	-2.521872
H	0.251114	-2.867704	-3.166949
H	1.009380	-1.292962	-2.790821
H	-0.768708	-1.448236	-2.791023
H	0.415963	-4.765317	1.375251
C	0.000000	0.000000	0.000000
C	0.295399	0.811508	1.099446
C	0.768742	2.111949	0.776721
H	0.169256	0.464952	2.136088
C	0.844232	2.319291	-0.612546
S	0.322342	0.885558	-1.486809
C	1.140796	3.134091	1.814609
H	0.995218	2.734123	2.836676
H	0.526006	4.054142	1.726239
H	2.203157	3.443680	1.726228
H	1.168902	3.211257	-1.161575
$end

$rem
JOBTYPE		SP
EXCHANGE	HF
CORRELATION	pRIMP2
BASIS		cc-pvtz
METHOD		rimp2
AUX_BASIS	rimp2-cc-pvtz
SOLVENT_METHOD	PCM
PURECART	11111
SYMMETRY	false
MEM_TOTAL	110000
SCF_CONVERGENCE = 6
THRESH=10
$end

$solvent
dielectric 4.90
$end
--------------------------------------------------------------

             Standard Nuclear Orientation (Angstroms)
    I     Atom           X                Y                Z
 ----------------------------------------------------------------
    1      C       0.3362970000    -3.8520730000     0.7751270000
    2      C       0.3225200000    -3.6898950000    -0.6125650000
    3      C       0.2054980000    -2.3480810000    -1.0666390000
    4      H       0.3970570000    -4.5437770000    -1.3029000000
    5      C       0.1255620000    -1.4351820000     0.0000000000
    6      S       0.1993310000    -2.2782540000     1.5444830000
    7      C       0.1727530000    -1.9711880000    -2.5218720000
    8      H       0.2511140000    -2.8677040000    -3.1669490000
    9      H       1.0093800000    -1.2929620000    -2.7908210000
   10      H      -0.7687080000    -1.4482360000    -2.7910230000
   11      H       0.4159630000    -4.7653170000     1.3752510000
   12      C       0.0000000000     0.0000000000     0.0000000000
   13      C       0.2953990000     0.8115080000     1.0994460000
   14      C       0.7687420000     2.1119490000     0.7767210000
   15      H       0.1692560000     0.4649520000     2.1360880000
   16      C       0.8442320000     2.3192910000    -0.6125460000
   17      S       0.3223420000     0.8855580000    -1.4868090000
   18      C       1.1407960000     3.1340910000     1.8146090000
   19      H       0.9952180000     2.7341230000     2.8366760000
   20      H       0.5260060000     4.0541420000     1.7262390000
   21      H       2.2031570000     3.4436800000     1.7262280000
   22      H       1.1689020000     3.2112570000    -1.1615750000
 ----------------------------------------------------------------

   10   -1179.6725567683      5.21e-07  Convergence criterion met
 Total energy in the final basis set =    -1179.6725567683
        RIMP2         total energy =     -1181.6568986713 a.u.

                    Orbital Energies (a.u.)
 --------------------------------------------------------------

 Alpha MOs
 -- Occupied --
-91.9846 -91.9826 -11.2807 -11.2785 -11.2701 -11.2659 -11.2528 -11.2506
-11.2434 -11.2425 -11.2292 -11.2288  -8.9846  -8.9827  -6.6655  -6.6649
 -6.6643  -6.6636  -6.6631  -6.6624  -1.1827  -1.1495  -1.0430  -1.0250
 -0.9990  -0.9519  -0.9144  -0.8953  -0.7991  -0.7657  -0.7202  -0.6955
 -0.6619  -0.6160  -0.5845  -0.5828  -0.5779  -0.5697  -0.5526  -0.5341
 -0.5228  -0.5215  -0.5122  -0.4961  -0.4860  -0.4664  -0.4489  -0.3712
 -0.3427  -0.3401  -0.2664

          Ground-State Mulliken Net Atomic Charges

     Atom                 Charge (a.u.)
  ----------------------------------------
      1 C                    -0.215883
      2 C                    -0.251059
      3 C                     0.048993
      4 H                     0.184442
      5 C                    -0.027731
      6 S                     0.000411
      7 C                    -0.319659
      8 H                     0.116203
      9 H                     0.115434
     10 H                     0.115856
     11 H                     0.206214
     12 C                     0.047545
     13 C                    -0.267336
     14 C                     0.041691
     15 H                     0.177496
     16 C                    -0.253380
     17 S                     0.030126
     18 C                    -0.268508
     19 H                     0.102919
     20 H                     0.108561
     21 H                     0.108499
     22 H                     0.199168
  ----------------------------------------
  Sum of atomic charges =     0.000000

                    Cartesian Multipole Moments
 -----------------------------------------------------------------
    Charge (ESU x 10^10)
                -0.0000
    Dipole Moment (Debye)
         X       0.8616      Y       0.3942      Z      -0.1729
       Tot       0.9632
    Quadrupole Moments (Debye-Ang)
        XX     -91.3020     XY       2.4585     YY     -70.6577
        XZ       0.0642     YZ       3.2905     ZZ     -79.8341

 Total job time:  580.36s(wall), 577.44s(cpu)
        *  Thank you very much for using Q-Chem.  Have a nice day.  *
