 Q-Chem 5.4, Q-Chem, Inc., Pleasanton, CA (2021)
 Q-Chem 5.4.0 for Intel X86 EM64T Linux

User input:
--------------------------------------------------------------
$molecule
0 1
C	-0.593324	-3.866725	-0.498788
C	0.469446	-3.703963	0.393517
C	0.817050	-2.357056	0.685674
H	0.998381	-4.561092	0.837128
C	0.000000	-1.440664	0.000000
S	-1.183149	-2.286957	-0.992768
C	1.931676	-1.978743	1.621254
H	2.425882	-2.878678	2.035845
H	1.563980	-1.376015	2.477868
H	2.711417	-1.375728	1.110719
H	-1.052896	-4.783437	-0.884718
C	0.000000	0.000000	0.000000
C	0.747916	0.431772	1.099446
C	1.946425	1.123709	0.776721
H	0.428523	0.247378	2.136088
C	2.137531	1.234018	-0.612546
S	0.816154	0.471179	-1.486809
C	2.888455	1.667564	1.814609
H	2.519842	1.454746	2.836676
H	3.008896	2.767543	1.726239
H	3.901271	1.221850	1.726228
H	2.959587	1.708609	-1.161575
$end

$rem
JOBTYPE		SP
EXCHANGE	HF
CORRELATION	pRIMP2
BASIS		cc-pvtz
METHOD		rimp2
AUX_BASIS	rimp2-cc-pvtz
SOLVENT_METHOD	PCM
PURECART	11111
SYMMETRY	false
MEM_TOTAL	110000
SCF_CONVERGENCE = 6
THRESH=10
$end

$solvent
dielectric 4.90
$end
--------------------------------------------------------------

             Standard Nuclear Orientation (Angstroms)
    I     Atom           X                Y                Z
 ----------------------------------------------------------------
    1      C      -0.5933240000    -3.8667250000    -0.4987880000
    2      C       0.4694460000    -3.7039630000     0.3935170000
    3      C       0.8170500000    -2.3570560000     0.6856740000
    4      H       0.9983810000    -4.5610920000     0.8371280000
    5      C       0.0000000000    -1.4406640000     0.0000000000
    6      S      -1.1831490000    -2.2869570000    -0.9927680000
    7      C       1.9316760000    -1.9787430000     1.6212540000
    8      H       2.4258820000    -2.8786780000     2.0358450000
    9      H       1.5639800000    -1.3760150000     2.4778680000
   10      H       2.7114170000    -1.3757280000     1.1107190000
   11      H      -1.0528960000    -4.7834370000    -0.8847180000
   12      C       0.0000000000     0.0000000000     0.0000000000
   13      C       0.7479160000     0.4317720000     1.0994460000
   14      C       1.9464250000     1.1237090000     0.7767210000
   15      H       0.4285230000     0.2473780000     2.1360880000
   16      C       2.1375310000     1.2340180000    -0.6125460000
   17      S       0.8161540000     0.4711790000    -1.4868090000
   18      C       2.8884550000     1.6675640000     1.8146090000
   19      H       2.5198420000     1.4547460000     2.8366760000
   20      H       3.0088960000     2.7675430000     1.7262390000
   21      H       3.9012710000     1.2218500000     1.7262280000
   22      H       2.9595870000     1.7086090000    -1.1615750000
 ----------------------------------------------------------------

   11   -1179.6098373222      4.80e-07  Convergence criterion met
 Total energy in the final basis set =    -1179.6098373222
        RIMP2         total energy =     -1181.6079019893 a.u.

                    Orbital Energies (a.u.)
 --------------------------------------------------------------

 Alpha MOs
 -- Occupied --
-91.9825 -91.9723 -11.2902 -11.2756 -11.2653 -11.2617 -11.2540 -11.2514
-11.2408 -11.2375 -11.2326 -11.2255  -8.9831  -8.9728  -6.6639  -6.6630
 -6.6627  -6.6537  -6.6531  -6.6526  -1.1924  -1.1453  -1.0470  -1.0233
 -0.9979  -0.9521  -0.9141  -0.8917  -0.7953  -0.7539  -0.7385  -0.7004
 -0.6535  -0.6200  -0.5938  -0.5861  -0.5677  -0.5632  -0.5489  -0.5401
 -0.5274  -0.5238  -0.5098  -0.4868  -0.4719  -0.4595  -0.4492  -0.3517
 -0.3389  -0.3365  -0.2750

          Ground-State Mulliken Net Atomic Charges

     Atom                 Charge (a.u.)
  ----------------------------------------
      1 C                    -0.220861
      2 C                    -0.265641
      3 C                     0.036326
      4 H                     0.181882
      5 C                     0.024105
      6 S                    -0.010451
      7 C                    -0.315607
      8 H                     0.116084
      9 H                     0.107574
     10 H                     0.116658
     11 H                     0.200682
     12 C                    -0.176800
     13 C                    -0.095057
     14 C                    -0.034637
     15 H                     0.192967
     16 C                    -0.163765
     17 S                     0.044187
     18 C                    -0.277195
     19 H                     0.106492
     20 H                     0.121944
     21 H                     0.107693
     22 H                     0.203419
  ----------------------------------------
  Sum of atomic charges =     0.000000

                    Cartesian Multipole Moments
 -----------------------------------------------------------------
    Charge (ESU x 10^10)
                -0.0000
    Dipole Moment (Debye)
         X       4.1445      Y       0.8853      Z       2.7389
       Tot       5.0460
    Quadrupole Moments (Debye-Ang)
        XX     -79.4077     XY       3.8530     YY     -80.1497
        XZ       3.3781     YZ      -0.9907     ZZ     -83.5281

 Total job time:  667.71s(wall), 665.03s(cpu)
        *  Thank you very much for using Q-Chem.  Have a nice day.  *
