 Q-Chem 5.4, Q-Chem, Inc., Pleasanton, CA (2021)
 Q-Chem 5.4.0 for Intel X86 EM64T Linux

User input:
--------------------------------------------------------------
$molecule
0 1
C	-0.670924	-3.866725	-0.388181
C	0.530648	-3.703963	0.306020
C	0.923703	-2.357056	0.533378
H	1.128579	-4.561092	0.651043
C	0.000000	-1.440664	0.000000
S	-1.337567	-2.286957	-0.772234
C	2.183857	-1.978743	1.261192
H	2.742548	-2.878678	1.583666
H	1.970497	-1.376015	2.168641
H	2.863099	-1.375728	0.623012
H	-1.190530	-4.783437	-0.688443
C	0.000000	0.000000	0.000000
C	0.000033	0.863600	1.099446
C	0.000052	2.247508	0.776721
H	0.000026	0.494801	2.136088
C	0.000074	2.468165	-0.612546
S	0.000024	0.942399	-1.486809
C	0.000075	3.335257	1.814609
H	0.000074	2.909620	2.836676
H	-0.892314	3.989552	1.726239
H	0.892483	3.989525	1.726228
H	0.000094	3.417382	-1.161575
$end

$rem
JOBTYPE		SP
EXCHANGE	HF
CORRELATION	pRIMP2
BASIS		cc-pvtz
METHOD		rimp2
AUX_BASIS	rimp2-cc-pvtz
SOLVENT_METHOD	PCM
PURECART	11111
SYMMETRY	false
MEM_TOTAL	110000
SCF_CONVERGENCE = 6
THRESH=10
$end

$solvent
dielectric 4.90
$end
--------------------------------------------------------------

             Standard Nuclear Orientation (Angstroms)
    I     Atom           X                Y                Z
 ----------------------------------------------------------------
    1      C      -0.6709240000    -3.8667250000    -0.3881810000
    2      C       0.5306480000    -3.7039630000     0.3060200000
    3      C       0.9237030000    -2.3570560000     0.5333780000
    4      H       1.1285790000    -4.5610920000     0.6510430000
    5      C       0.0000000000    -1.4406640000     0.0000000000
    6      S      -1.3375670000    -2.2869570000    -0.7722340000
    7      C       2.1838570000    -1.9787430000     1.2611920000
    8      H       2.7425480000    -2.8786780000     1.5836660000
    9      H       1.9704970000    -1.3760150000     2.1686410000
   10      H       2.8630990000    -1.3757280000     0.6230120000
   11      H      -1.1905300000    -4.7834370000    -0.6884430000
   12      C       0.0000000000     0.0000000000     0.0000000000
   13      C       0.0000330000     0.8636000000     1.0994460000
   14      C       0.0000520000     2.2475080000     0.7767210000
   15      H       0.0000260000     0.4948010000     2.1360880000
   16      C       0.0000740000     2.4681650000    -0.6125460000
   17      S       0.0000240000     0.9423990000    -1.4868090000
   18      C       0.0000750000     3.3352570000     1.8146090000
   19      H       0.0000740000     2.9096200000     2.8366760000
   20      H      -0.8923140000     3.9895520000     1.7262390000
   21      H       0.8924830000     3.9895250000     1.7262280000
   22      H       0.0000940000     3.4173820000    -1.1615750000
 ----------------------------------------------------------------

   10   -1179.6864211728      5.17e-07  Convergence criterion met
 Total energy in the final basis set =    -1179.6864211728
        RIMP2         total energy =     -1181.6645496990 a.u.

                    Orbital Energies (a.u.)
 --------------------------------------------------------------

 Alpha MOs
 -- Occupied --
-91.9859 -91.9848 -11.2801 -11.2743 -11.2725 -11.2643 -11.2541 -11.2513
-11.2425 -11.2416 -11.2296 -11.2291  -8.9854  -8.9845  -6.6663  -6.6657
 -6.6654  -6.6651  -6.6648  -6.6642  -1.1791  -1.1498  -1.0405  -1.0241
 -0.9965  -0.9552  -0.9131  -0.8929  -0.8017  -0.7532  -0.7309  -0.6963
 -0.6624  -0.6157  -0.5839  -0.5799  -0.5702  -0.5670  -0.5522  -0.5336
 -0.5296  -0.5209  -0.5074  -0.4913  -0.4882  -0.4681  -0.4602  -0.3487
 -0.3398  -0.3355  -0.2889

          Ground-State Mulliken Net Atomic Charges

     Atom                 Charge (a.u.)
  ----------------------------------------
      1 C                    -0.213697
      2 C                    -0.248099
      3 C                     0.043962
      4 H                     0.184506
      5 C                    -0.040819
      6 S                     0.022674
      7 C                    -0.281869
      8 H                     0.109461
      9 H                     0.108377
     10 H                     0.112463
     11 H                     0.204835
     12 C                    -0.006825
     13 C                    -0.233517
     14 C                     0.018411
     15 H                     0.190769
     16 C                    -0.240079
     17 S                     0.024234
     18 C                    -0.271818
     19 H                     0.102385
     20 H                     0.108641
     21 H                     0.107970
     22 H                     0.198033
  ----------------------------------------
  Sum of atomic charges =     0.000000

                    Cartesian Multipole Moments
 -----------------------------------------------------------------
    Charge (ESU x 10^10)
                -0.0000
    Dipole Moment (Debye)
         X       1.3087      Y       0.2234      Z       2.2076
       Tot       2.5760
    Quadrupole Moments (Debye-Ang)
        XX     -87.8144     XY      -1.8055     YY     -68.6303
        XZ       2.8386     YZ      -0.0485     ZZ     -85.0910

 Total job time:  580.97s(wall), 578.21s(cpu)
        *  Thank you very much for using Q-Chem.  Have a nice day.  *
