 Q-Chem 5.4, Q-Chem, Inc., Pleasanton, CA (2021)
 Q-Chem 5.4.0 for Intel X86 EM64T Linux

User input:
--------------------------------------------------------------
$molecule
0 1
C	-0.265779	-3.866725	0.728138
C	0.209225	-3.703963	-0.575726
C	0.364875	-2.357056	-1.002290
H	0.445176	-4.561092	-1.224486
C	0.000000	-1.440664	0.000000
S	-0.528236	-2.286957	1.451343
C	0.862808	-1.978743	-2.369683
H	1.083368	-2.878678	-2.975883
H	1.793522	-1.376015	-2.317142
H	0.116375	-1.375728	-2.927787
H	-0.471251	-4.783437	1.291990
C	0.000000	0.000000	0.000000
C	0.431829	0.747884	1.099446
C	1.123799	1.946373	0.776721
H	0.247423	0.428497	2.136088
C	1.234147	2.137457	-0.612546
S	0.471221	0.816130	-1.486809
C	1.667694	2.888380	1.814609
H	1.454874	2.519768	2.836676
H	1.222009	3.901210	1.726239
H	2.767675	3.008788	1.726228
H	1.708773	2.959493	-1.161575
$end

$rem
JOBTYPE		SP
EXCHANGE	HF
CORRELATION	pRIMP2
BASIS		cc-pvtz
METHOD		rimp2
AUX_BASIS	rimp2-cc-pvtz
SOLVENT_METHOD	PCM
PURECART	11111
SYMMETRY	false
MEM_TOTAL	110000
SCF_CONVERGENCE = 6
THRESH=10
$end

$solvent
dielectric 4.90
$end
--------------------------------------------------------------

             Standard Nuclear Orientation (Angstroms)
    I     Atom           X                Y                Z
 ----------------------------------------------------------------
    1      C      -0.2657790000    -3.8667250000     0.7281380000
    2      C       0.2092250000    -3.7039630000    -0.5757260000
    3      C       0.3648750000    -2.3570560000    -1.0022900000
    4      H       0.4451760000    -4.5610920000    -1.2244860000
    5      C       0.0000000000    -1.4406640000     0.0000000000
    6      S      -0.5282360000    -2.2869570000     1.4513430000
    7      C       0.8628080000    -1.9787430000    -2.3696830000
    8      H       1.0833680000    -2.8786780000    -2.9758830000
    9      H       1.7935220000    -1.3760150000    -2.3171420000
   10      H       0.1163750000    -1.3757280000    -2.9277870000
   11      H      -0.4712510000    -4.7834370000     1.2919900000
   12      C       0.0000000000     0.0000000000     0.0000000000
   13      C       0.4318290000     0.7478840000     1.0994460000
   14      C       1.1237990000     1.9463730000     0.7767210000
   15      H       0.2474230000     0.4284970000     2.1360880000
   16      C       1.2341470000     2.1374570000    -0.6125460000
   17      S       0.4712210000     0.8161300000    -1.4868090000
   18      C       1.6676940000     2.8883800000     1.8146090000
   19      H       1.4548740000     2.5197680000     2.8366760000
   20      H       1.2220090000     3.9012100000     1.7262390000
   21      H       2.7676750000     3.0087880000     1.7262280000
   22      H       1.7087730000     2.9594930000    -1.1615750000
 ----------------------------------------------------------------

   10   -1179.6632269818      5.89e-07  Convergence criterion met
 Total energy in the final basis set =    -1179.6632269818
        RIMP2         total energy =     -1181.6497762453 a.u.

                    Orbital Energies (a.u.)
 --------------------------------------------------------------

 Alpha MOs
 -- Occupied --
-91.9834 -91.9812 -11.2789 -11.2776 -11.2683 -11.2680 -11.2521 -11.2482
-11.2457 -11.2417 -11.2293 -11.2267  -8.9837  -8.9813  -6.6644  -6.6639
 -6.6633  -6.6623  -6.6618  -6.6611  -1.1829  -1.1487  -1.0432  -1.0235
 -0.9984  -0.9521  -0.9128  -0.8951  -0.7978  -0.7643  -0.7217  -0.6956
 -0.6602  -0.6161  -0.5844  -0.5810  -0.5777  -0.5694  -0.5517  -0.5334
 -0.5248  -0.5209  -0.5121  -0.4955  -0.4814  -0.4645  -0.4489  -0.3692
 -0.3414  -0.3377  -0.2674

          Ground-State Mulliken Net Atomic Charges

     Atom                 Charge (a.u.)
  ----------------------------------------
      1 C                    -0.218727
      2 C                    -0.250942
      3 C                     0.045123
      4 H                     0.184454
      5 C                    -0.032799
      6 S                     0.001414
      7 C                    -0.305440
      8 H                     0.110437
      9 H                     0.120327
     10 H                     0.108894
     11 H                     0.204883
     12 C                     0.010730
     13 C                    -0.219665
     14 C                     0.019531
     15 H                     0.180992
     16 C                    -0.232811
     17 S                     0.024259
     18 C                    -0.268982
     19 H                     0.102991
     20 H                     0.108423
     21 H                     0.107423
     22 H                     0.199487
  ----------------------------------------
  Sum of atomic charges =     0.000000

                    Cartesian Multipole Moments
 -----------------------------------------------------------------
    Charge (ESU x 10^10)
                -0.0000
    Dipole Moment (Debye)
         X       1.6799      Y       0.5285      Z      -0.1051
       Tot       1.7642
    Quadrupole Moments (Debye-Ang)
        XX     -89.0500     XY       4.0363     YY     -72.8832
        XZ      -1.7490     YZ       2.9248     ZZ     -80.6646

 Total job time:  564.68s(wall), 561.43s(cpu)
        *  Thank you very much for using Q-Chem.  Have a nice day.  *
