 Q-Chem 5.4, Q-Chem, Inc., Pleasanton, CA (2021)
 Q-Chem 5.4.0 for Intel X86 EM64T Linux

User input:
--------------------------------------------------------------
$molecule
0 1
C	0.000713	-3.866725	-0.775127
C	0.000302	-3.703963	0.612565
C	-0.000067	-2.357056	1.066639
H	0.000470	-4.561092	1.302900
C	-0.000000	-1.440664	-0.000000
S	-0.000009	-2.286957	-1.544483
C	-0.000295	-1.978743	2.521872
H	-0.000221	-2.878678	3.166949
H	-0.892850	-1.376015	2.790821
H	0.892005	-1.375728	2.791023
H	0.000945	-4.783437	-1.375251
C	0.000000	0.000000	0.000000
C	0.149995	0.850475	1.099446
C	0.390327	2.213354	0.776721
H	0.085947	0.487279	2.136088
C	0.428665	2.430655	-0.612546
S	0.163670	0.928078	-1.486809
C	0.579235	3.284574	1.814609
H	0.505323	2.865404	2.836676
H	-0.185980	4.083890	1.726239
H	1.571698	3.773937	1.726228
H	0.593515	3.365448	-1.161575
$end

$rem
JOBTYPE		SP
EXCHANGE	HF
CORRELATION	pRIMP2
BASIS		cc-pvtz
METHOD		rimp2
AUX_BASIS	rimp2-cc-pvtz
SOLVENT_METHOD	PCM
PURECART	11111
SYMMETRY	false
MEM_TOTAL	110000
SCF_CONVERGENCE = 6
THRESH=10
$end

$solvent
dielectric 4.90
$end
--------------------------------------------------------------

             Standard Nuclear Orientation (Angstroms)
    I     Atom           X                Y                Z
 ----------------------------------------------------------------
    1      C       0.0007130000    -3.8667250000    -0.7751270000
    2      C       0.0003020000    -3.7039630000     0.6125650000
    3      C      -0.0000670000    -2.3570560000     1.0666390000
    4      H       0.0004700000    -4.5610920000     1.3029000000
    5      C       0.0000000000    -1.4406640000     0.0000000000
    6      S      -0.0000090000    -2.2869570000    -1.5444830000
    7      C      -0.0002950000    -1.9787430000     2.5218720000
    8      H      -0.0002210000    -2.8786780000     3.1669490000
    9      H      -0.8928500000    -1.3760150000     2.7908210000
   10      H       0.8920050000    -1.3757280000     2.7910230000
   11      H       0.0009450000    -4.7834370000    -1.3752510000
   12      C       0.0000000000     0.0000000000     0.0000000000
   13      C       0.1499950000     0.8504750000     1.0994460000
   14      C       0.3903270000     2.2133540000     0.7767210000
   15      H       0.0859470000     0.4872790000     2.1360880000
   16      C       0.4286650000     2.4306550000    -0.6125460000
   17      S       0.1636700000     0.9280780000    -1.4868090000
   18      C       0.5792350000     3.2845740000     1.8146090000
   19      H       0.5053230000     2.8654040000     2.8366760000
   20      H      -0.1859800000     4.0838900000     1.7262390000
   21      H       1.5716980000     3.7739370000     1.7262280000
   22      H       0.5935150000     3.3654480000    -1.1615750000
 ----------------------------------------------------------------

   10   -1179.6835238834      5.07e-07  Convergence criterion met
 Total energy in the final basis set =    -1179.6835238834
        RIMP2         total energy =     -1181.6641448812 a.u.

                    Orbital Energies (a.u.)
 --------------------------------------------------------------

 Alpha MOs
 -- Occupied --
-91.9857 -91.9848 -11.2835 -11.2789 -11.2725 -11.2645 -11.2538 -11.2523
-11.2440 -11.2400 -11.2319 -11.2294  -8.9856  -8.9849  -6.6665  -6.6660
 -6.6658  -6.6653  -6.6653  -6.6646  -1.1819  -1.1504  -1.0423  -1.0281
 -0.9959  -0.9565  -0.9148  -0.8948  -0.8035  -0.7573  -0.7269  -0.7012
 -0.6623  -0.6140  -0.5911  -0.5824  -0.5701  -0.5641  -0.5524  -0.5404
 -0.5296  -0.5241  -0.5042  -0.4912  -0.4880  -0.4780  -0.4502  -0.3714
 -0.3482  -0.3372  -0.2683

          Ground-State Mulliken Net Atomic Charges

     Atom                 Charge (a.u.)
  ----------------------------------------
      1 C                    -0.213724
      2 C                    -0.254260
      3 C                     0.072236
      4 H                     0.184372
      5 C                    -0.047295
      6 S                     0.007432
      7 C                    -0.316675
      8 H                     0.119741
      9 H                     0.110912
     10 H                     0.109822
     11 H                     0.207830
     12 C                     0.039856
     13 C                    -0.245569
     14 C                     0.025994
     15 H                     0.194714
     16 C                    -0.250787
     17 S                     0.007381
     18 C                    -0.271190
     19 H                     0.101281
     20 H                     0.108577
     21 H                     0.109026
     22 H                     0.200326
  ----------------------------------------
  Sum of atomic charges =     0.000000

                    Cartesian Multipole Moments
 -----------------------------------------------------------------
    Charge (ESU x 10^10)
                -0.0000
    Dipole Moment (Debye)
         X       0.3339      Y       0.1488      Z       2.9459
       Tot       2.9685
    Quadrupole Moments (Debye-Ang)
        XX     -92.4457     XY       1.8942     YY     -68.6097
        XZ       0.1807     YZ      -1.2072     ZZ     -80.0277

 Total job time:  576.68s(wall), 574.29s(cpu)
        *  Thank you very much for using Q-Chem.  Have a nice day.  *
