 Q-Chem 5.4, Q-Chem, Inc., Pleasanton, CA (2021)
 Q-Chem 5.4.0 for Intel X86 EM64T Linux

User input:
--------------------------------------------------------------
$molecule
0 1
C	0.000713	-3.866725	-0.775127
C	0.000302	-3.703963	0.612565
C	-0.000067	-2.357056	1.066639
H	0.000470	-4.561092	1.302900
C	0.000000	-1.440664	0.000000
S	-0.000009	-2.286957	-1.544483
C	-0.000295	-1.978743	2.521872
H	-0.000221	-2.878678	3.166949
H	-0.892850	-1.376015	2.790821
H	0.892005	-1.375728	2.791023
H	0.000945	-4.783437	-1.375251
C	0.000000	0.000000	0.000000
C	0.431829	0.747884	1.099446
C	1.123799	1.946373	0.776721
H	0.247423	0.428497	2.136088
C	1.234147	2.137457	-0.612546
S	0.471221	0.816130	-1.486809
C	1.667694	2.888380	1.814609
H	1.454874	2.519768	2.836676
H	1.222009	3.901210	1.726239
H	2.767675	3.008788	1.726228
H	1.708773	2.959493	-1.161575
$end

$rem
JOBTYPE		SP
EXCHANGE	HF
CORRELATION	pRIMP2
BASIS		cc-pvtz
METHOD		rimp2
AUX_BASIS	rimp2-cc-pvtz
SOLVENT_METHOD	PCM
PURECART	11111
SYMMETRY	false
MEM_TOTAL	110000
SCF_CONVERGENCE = 6
THRESH=10
$end

$solvent
dielectric 4.90
$end
--------------------------------------------------------------

             Standard Nuclear Orientation (Angstroms)
    I     Atom           X                Y                Z
 ----------------------------------------------------------------
    1      C       0.0007130000    -3.8667250000    -0.7751270000
    2      C       0.0003020000    -3.7039630000     0.6125650000
    3      C      -0.0000670000    -2.3570560000     1.0666390000
    4      H       0.0004700000    -4.5610920000     1.3029000000
    5      C       0.0000000000    -1.4406640000     0.0000000000
    6      S      -0.0000090000    -2.2869570000    -1.5444830000
    7      C      -0.0002950000    -1.9787430000     2.5218720000
    8      H      -0.0002210000    -2.8786780000     3.1669490000
    9      H      -0.8928500000    -1.3760150000     2.7908210000
   10      H       0.8920050000    -1.3757280000     2.7910230000
   11      H       0.0009450000    -4.7834370000    -1.3752510000
   12      C       0.0000000000     0.0000000000     0.0000000000
   13      C       0.4318290000     0.7478840000     1.0994460000
   14      C       1.1237990000     1.9463730000     0.7767210000
   15      H       0.2474230000     0.4284970000     2.1360880000
   16      C       1.2341470000     2.1374570000    -0.6125460000
   17      S       0.4712210000     0.8161300000    -1.4868090000
   18      C       1.6676940000     2.8883800000     1.8146090000
   19      H       1.4548740000     2.5197680000     2.8366760000
   20      H       1.2220090000     3.9012100000     1.7262390000
   21      H       2.7676750000     3.0087880000     1.7262280000
   22      H       1.7087730000     2.9594930000    -1.1615750000
 ----------------------------------------------------------------

   10   -1179.6659532847      5.30e-07  Convergence criterion met
 Total energy in the final basis set =    -1179.6659532847
        RIMP2         total energy =     -1181.6512072887 a.u.

                    Orbital Energies (a.u.)
 --------------------------------------------------------------

 Alpha MOs
 -- Occupied --
-91.9851 -91.9817 -11.2789 -11.2778 -11.2709 -11.2678 -11.2532 -11.2484
-11.2457 -11.2420 -11.2305 -11.2302  -8.9852  -8.9818  -6.6662  -6.6656
 -6.6650  -6.6628  -6.6622  -6.6616  -1.1836  -1.1494  -1.0434  -1.0266
 -0.9958  -0.9561  -0.9136  -0.8947  -0.8020  -0.7564  -0.7279  -0.7015
 -0.6597  -0.6141  -0.5927  -0.5824  -0.5706  -0.5627  -0.5517  -0.5409
 -0.5301  -0.5231  -0.5045  -0.4905  -0.4829  -0.4765  -0.4482  -0.3711
 -0.3487  -0.3350  -0.2660

          Ground-State Mulliken Net Atomic Charges

     Atom                 Charge (a.u.)
  ----------------------------------------
      1 C                    -0.225813
      2 C                    -0.246563
      3 C                     0.052976
      4 H                     0.183837
      5 C                    -0.031505
      6 S                     0.005026
      7 C                    -0.313158
      8 H                     0.117075
      9 H                     0.110063
     10 H                     0.106024
     11 H                     0.205711
     12 C                     0.018036
     13 C                    -0.241428
     14 C                     0.030470
     15 H                     0.195947
     16 C                    -0.234666
     17 S                     0.016580
     18 C                    -0.269057
     19 H                     0.101772
     20 H                     0.109006
     21 H                     0.108535
     22 H                     0.201131
  ----------------------------------------
  Sum of atomic charges =     0.000000

                    Cartesian Multipole Moments
 -----------------------------------------------------------------
    Charge (ESU x 10^10)
                -0.0000
    Dipole Moment (Debye)
         X       1.1470      Y       0.5939      Z       2.9823
       Tot       3.2500
    Quadrupole Moments (Debye-Ang)
        XX     -89.7945     XY       4.9961     YY     -72.2222
        XZ       0.4636     YZ      -1.4528     ZZ     -80.0956

 Total job time:  566.80s(wall), 564.75s(cpu)
        *  Thank you very much for using Q-Chem.  Have a nice day.  *
