 Q-Chem 5.4, Q-Chem, Inc., Pleasanton, CA (2021)
 Q-Chem 5.4.0 for Intel X86 EM64T Linux

User input:
--------------------------------------------------------------
$molecule
0 1
C	-0.594240	-3.866725	0.497696
C	0.469057	-3.703963	-0.393981
C	0.817136	-2.357056	-0.685571
H	0.997777	-4.561092	-0.837848
C	0.000000	-1.440664	0.000000
S	-1.183137	-2.286957	0.992782
C	1.932056	-1.978743	-1.620802
H	2.426166	-2.878678	-2.035506
H	2.711806	-1.376015	-1.109943
H	1.564678	-1.375728	-2.477350
H	-1.054110	-4.783437	0.883271
C	0.000000	0.000000	0.000000
C	0.000033	0.863600	1.099446
C	0.000052	2.247508	0.776721
H	0.000026	0.494801	2.136088
C	0.000074	2.468165	-0.612546
S	0.000024	0.942399	-1.486809
C	0.000075	3.335257	1.814609
H	0.000074	2.909620	2.836676
H	-0.892314	3.989552	1.726239
H	0.892483	3.989525	1.726228
H	0.000094	3.417382	-1.161575
$end

$rem
JOBTYPE		SP
EXCHANGE	HF
CORRELATION	pRIMP2
BASIS		cc-pvtz
METHOD		rimp2
AUX_BASIS	rimp2-cc-pvtz
SOLVENT_METHOD	PCM
PURECART	11111
SYMMETRY	false
MEM_TOTAL	110000
SCF_CONVERGENCE = 6
THRESH=10
$end

$solvent
dielectric 4.90
$end
--------------------------------------------------------------

             Standard Nuclear Orientation (Angstroms)
    I     Atom           X                Y                Z
 ----------------------------------------------------------------
    1      C      -0.5942400000    -3.8667250000     0.4976960000
    2      C       0.4690570000    -3.7039630000    -0.3939810000
    3      C       0.8171360000    -2.3570560000    -0.6855710000
    4      H       0.9977770000    -4.5610920000    -0.8378480000
    5      C       0.0000000000    -1.4406640000     0.0000000000
    6      S      -1.1831370000    -2.2869570000     0.9927820000
    7      C       1.9320560000    -1.9787430000    -1.6208020000
    8      H       2.4261660000    -2.8786780000    -2.0355060000
    9      H       2.7118060000    -1.3760150000    -1.1099430000
   10      H       1.5646780000    -1.3757280000    -2.4773500000
   11      H      -1.0541100000    -4.7834370000     0.8832710000
   12      C       0.0000000000     0.0000000000     0.0000000000
   13      C       0.0000330000     0.8636000000     1.0994460000
   14      C       0.0000520000     2.2475080000     0.7767210000
   15      H       0.0000260000     0.4948010000     2.1360880000
   16      C       0.0000740000     2.4681650000    -0.6125460000
   17      S       0.0000240000     0.9423990000    -1.4868090000
   18      C       0.0000750000     3.3352570000     1.8146090000
   19      H       0.0000740000     2.9096200000     2.8366760000
   20      H      -0.8923140000     3.9895520000     1.7262390000
   21      H       0.8924830000     3.9895250000     1.7262280000
   22      H       0.0000940000     3.4173820000    -1.1615750000
 ----------------------------------------------------------------

   10   -1179.6868540327      5.15e-07  Convergence criterion met
 Total energy in the final basis set =    -1179.6868540327
        RIMP2         total energy =     -1181.6654371477 a.u.

                    Orbital Energies (a.u.)
 --------------------------------------------------------------

 Alpha MOs
 -- Occupied --
-91.9855 -91.9853 -11.2813 -11.2752 -11.2722 -11.2641 -11.2533 -11.2513
-11.2427 -11.2416 -11.2291 -11.2289  -8.9851  -8.9849  -6.6660  -6.6658
 -6.6654  -6.6653  -6.6648  -6.6646  -1.1796  -1.1498  -1.0408  -1.0236
 -0.9985  -0.9531  -0.9144  -0.8929  -0.8006  -0.7602  -0.7246  -0.6948
 -0.6627  -0.6162  -0.5830  -0.5780  -0.5751  -0.5697  -0.5522  -0.5333
 -0.5267  -0.5196  -0.5088  -0.4945  -0.4884  -0.4671  -0.4580  -0.3517
 -0.3429  -0.3378  -0.2825

          Ground-State Mulliken Net Atomic Charges

     Atom                 Charge (a.u.)
  ----------------------------------------
      1 C                    -0.215615
      2 C                    -0.247475
      3 C                     0.027712
      4 H                     0.184637
      5 C                    -0.025825
      6 S                     0.022786
      7 C                    -0.292366
      8 H                     0.109959
      9 H                     0.114429
     10 H                     0.111908
     11 H                     0.204841
     12 C                     0.016189
     13 C                    -0.249757
     14 C                     0.022504
     15 H                     0.188005
     16 C                    -0.241334
     17 S                     0.023399
     18 C                    -0.271510
     19 H                     0.102932
     20 H                     0.108411
     21 H                     0.108065
     22 H                     0.198104
  ----------------------------------------
  Sum of atomic charges =     0.000000

                    Cartesian Multipole Moments
 -----------------------------------------------------------------
    Charge (ESU x 10^10)
                -0.0000
    Dipole Moment (Debye)
         X       1.1568      Y       0.2138      Z       0.4396
       Tot       1.2559
    Quadrupole Moments (Debye-Ang)
        XX     -88.8845     XY      -1.6141     YY     -68.7218
        XZ      -3.3115     YZ       2.4064     ZZ     -83.9173

 Total job time:  577.98s(wall), 575.27s(cpu)
        *  Thank you very much for using Q-Chem.  Have a nice day.  *
