 Q-Chem 5.4, Q-Chem, Inc., Pleasanton, CA (2021)
 Q-Chem 5.4.0 for Intel X86 EM64T Linux

User input:
--------------------------------------------------------------
$molecule
0 1
C	0.000713	-3.866725	-0.775127
C	0.000302	-3.703963	0.612565
C	-0.000067	-2.357056	1.066639
H	0.000470	-4.561092	1.302900
C	0.000000	-1.440664	0.000000
S	-0.000009	-2.286957	-1.544483
C	-0.000295	-1.978743	2.521872
H	-0.000221	-2.878678	3.166949
H	-0.892850	-1.376015	2.790821
H	0.892005	-1.375728	2.791023
H	0.000945	-4.783437	-1.375251
C	0.000000	0.000000	0.000000
C	0.295399	0.811508	1.099446
C	0.768742	2.111949	0.776721
H	0.169256	0.464952	2.136088
C	0.844232	2.319291	-0.612546
S	0.322342	0.885558	-1.486809
C	1.140796	3.134091	1.814609
H	0.995218	2.734123	2.836676
H	0.526006	4.054142	1.726239
H	2.203157	3.443680	1.726228
H	1.168902	3.211257	-1.161575
$end

$rem
JOBTYPE		SP
EXCHANGE	HF
CORRELATION	pRIMP2
BASIS		cc-pvtz
METHOD		rimp2
AUX_BASIS	rimp2-cc-pvtz
SOLVENT_METHOD	PCM
PURECART	11111
SYMMETRY	false
MEM_TOTAL	110000
SCF_CONVERGENCE = 6
THRESH=10
$end

$solvent
dielectric 4.90
$end
--------------------------------------------------------------

             Standard Nuclear Orientation (Angstroms)
    I     Atom           X                Y                Z
 ----------------------------------------------------------------
    1      C       0.0007130000    -3.8667250000    -0.7751270000
    2      C       0.0003020000    -3.7039630000     0.6125650000
    3      C      -0.0000670000    -2.3570560000     1.0666390000
    4      H       0.0004700000    -4.5610920000     1.3029000000
    5      C       0.0000000000    -1.4406640000     0.0000000000
    6      S      -0.0000090000    -2.2869570000    -1.5444830000
    7      C      -0.0002950000    -1.9787430000     2.5218720000
    8      H      -0.0002210000    -2.8786780000     3.1669490000
    9      H      -0.8928500000    -1.3760150000     2.7908210000
   10      H       0.8920050000    -1.3757280000     2.7910230000
   11      H       0.0009450000    -4.7834370000    -1.3752510000
   12      C       0.0000000000     0.0000000000     0.0000000000
   13      C       0.2953990000     0.8115080000     1.0994460000
   14      C       0.7687420000     2.1119490000     0.7767210000
   15      H       0.1692560000     0.4649520000     2.1360880000
   16      C       0.8442320000     2.3192910000    -0.6125460000
   17      S       0.3223420000     0.8855580000    -1.4868090000
   18      C       1.1407960000     3.1340910000     1.8146090000
   19      H       0.9952180000     2.7341230000     2.8366760000
   20      H       0.5260060000     4.0541420000     1.7262390000
   21      H       2.2031570000     3.4436800000     1.7262280000
   22      H       1.1689020000     3.2112570000    -1.1615750000
 ----------------------------------------------------------------

   10   -1179.6769986756      4.72e-07  Convergence criterion met
 Total energy in the final basis set =    -1179.6769986756
        RIMP2         total energy =     -1181.6594108670 a.u.

                    Orbital Energies (a.u.)
 --------------------------------------------------------------

 Alpha MOs
 -- Occupied --
-91.9855 -91.9836 -11.2816 -11.2787 -11.2708 -11.2669 -11.2526 -11.2518
-11.2433 -11.2421 -11.2314 -11.2297  -8.9854  -8.9837  -6.6664  -6.6658
 -6.6652  -6.6647  -6.6641  -6.6635  -1.1825  -1.1501  -1.0427  -1.0275
 -0.9958  -0.9564  -0.9143  -0.8948  -0.8029  -0.7569  -0.7273  -0.7013
 -0.6613  -0.6140  -0.5916  -0.5823  -0.5704  -0.5636  -0.5522  -0.5406
 -0.5297  -0.5238  -0.5044  -0.4912  -0.4854  -0.4778  -0.4495  -0.3713
 -0.3484  -0.3364  -0.2674

          Ground-State Mulliken Net Atomic Charges

     Atom                 Charge (a.u.)
  ----------------------------------------
      1 C                    -0.218939
      2 C                    -0.248974
      3 C                     0.060369
      4 H                     0.184349
      5 C                    -0.038422
      6 S                     0.007138
      7 C                    -0.315708
      8 H                     0.118524
      9 H                     0.110692
     10 H                     0.108302
     11 H                     0.206925
     12 C                     0.037453
     13 C                    -0.253976
     14 C                     0.033027
     15 H                     0.194346
     16 C                    -0.246465
     17 S                     0.011694
     18 C                    -0.269929
     19 H                     0.101529
     20 H                     0.108741
     21 H                     0.108866
     22 H                     0.200456
  ----------------------------------------
  Sum of atomic charges =     0.000000

                    Cartesian Multipole Moments
 -----------------------------------------------------------------
    Charge (ESU x 10^10)
                -0.0000
    Dipole Moment (Debye)
         X       0.7052      Y       0.3204      Z       2.9614
       Tot       3.0610
    Quadrupole Moments (Debye-Ang)
        XX     -91.4245     XY       3.6132     YY     -69.9927
        XZ       0.3434     YZ      -1.3042     ZZ     -80.0554

 Total job time:  565.60s(wall), 562.82s(cpu)
        *  Thank you very much for using Q-Chem.  Have a nice day.  *
