 Q-Chem 5.4, Q-Chem, Inc., Pleasanton, CA (2021)
 Q-Chem 5.4.0 for Intel X86 EM64T Linux

User input:
--------------------------------------------------------------
$molecule
0 1
C	0.728138	-3.866725	0.265779
C	-0.575726	-3.703963	-0.209225
C	-1.002290	-2.357056	-0.364875
H	-1.224486	-4.561092	-0.445176
C	-0.000000	-1.440664	-0.000000
S	1.451343	-2.286957	0.528236
C	-2.369683	-1.978743	-0.862808
H	-2.975883	-2.878678	-1.083368
H	-2.317142	-1.376015	-1.793522
H	-2.927787	-1.375728	-0.116375
H	1.291990	-4.783437	0.471251
C	0.000000	0.000000	0.000000
C	0.555137	0.661535	1.099446
C	1.444710	1.721658	0.776721
H	0.318072	0.379023	2.136088
C	1.586563	1.890676	-0.612546
S	0.605781	0.721904	-1.486809
C	2.143920	2.554907	1.814609
H	1.870325	2.228851	2.836676
H	1.880882	3.629742	1.726239
H	3.248098	2.482476	1.726228
H	2.196723	2.617806	-1.161575
$end

$rem
JOBTYPE		SP
EXCHANGE	HF
CORRELATION	pRIMP2
BASIS		cc-pvtz
METHOD		rimp2
AUX_BASIS	rimp2-cc-pvtz
SOLVENT_METHOD	PCM
PURECART	11111
SYMMETRY	false
MEM_TOTAL	110000
SCF_CONVERGENCE = 6
THRESH=10
$end

$solvent
dielectric 4.90
$end
--------------------------------------------------------------

             Standard Nuclear Orientation (Angstroms)
    I     Atom           X                Y                Z
 ----------------------------------------------------------------
    1      C       0.7281380000    -3.8667250000     0.2657790000
    2      C      -0.5757260000    -3.7039630000    -0.2092250000
    3      C      -1.0022900000    -2.3570560000    -0.3648750000
    4      H      -1.2244860000    -4.5610920000    -0.4451760000
    5      C       0.0000000000    -1.4406640000     0.0000000000
    6      S       1.4513430000    -2.2869570000     0.5282360000
    7      C      -2.3696830000    -1.9787430000    -0.8628080000
    8      H      -2.9758830000    -2.8786780000    -1.0833680000
    9      H      -2.3171420000    -1.3760150000    -1.7935220000
   10      H      -2.9277870000    -1.3757280000    -0.1163750000
   11      H       1.2919900000    -4.7834370000     0.4712510000
   12      C       0.0000000000     0.0000000000     0.0000000000
   13      C       0.5551370000     0.6615350000     1.0994460000
   14      C       1.4447100000     1.7216580000     0.7767210000
   15      H       0.3180720000     0.3790230000     2.1360880000
   16      C       1.5865630000     1.8906760000    -0.6125460000
   17      S       0.6057810000     0.7219040000    -1.4868090000
   18      C       2.1439200000     2.5549070000     1.8146090000
   19      H       1.8703250000     2.2288510000     2.8366760000
   20      H       1.8808820000     3.6297420000     1.7262390000
   21      H       3.2480980000     2.4824760000     1.7262280000
   22      H       2.1967230000     2.6178060000    -1.1615750000
 ----------------------------------------------------------------

   10   -1179.6571045719      5.47e-07  Convergence criterion met
 Total energy in the final basis set =    -1179.6571045719
        RIMP2         total energy =     -1181.6421450274 a.u.

                    Orbital Energies (a.u.)
 --------------------------------------------------------------

 Alpha MOs
 -- Occupied --
-91.9837 -91.9810 -11.2757 -11.2706 -11.2681 -11.2664 -11.2524 -11.2506
-11.2462 -11.2390 -11.2298 -11.2275  -8.9836  -8.9808  -6.6645  -6.6638
 -6.6633  -6.6617  -6.6611  -6.6605  -1.1825  -1.1478  -1.0420  -1.0204
 -0.9989  -0.9508  -0.9133  -0.8912  -0.7981  -0.7555  -0.7312  -0.6908
 -0.6595  -0.6182  -0.5832  -0.5799  -0.5710  -0.5691  -0.5503  -0.5337
 -0.5282  -0.5174  -0.5084  -0.4918  -0.4743  -0.4655  -0.4609  -0.3502
 -0.3348  -0.3272  -0.2923

          Ground-State Mulliken Net Atomic Charges

     Atom                 Charge (a.u.)
  ----------------------------------------
      1 C                    -0.215870
      2 C                    -0.251154
      3 C                     0.047273
      4 H                     0.181829
      5 C                    -0.043151
      6 S                     0.021563
      7 C                    -0.286226
      8 H                     0.107242
      9 H                     0.108533
     10 H                     0.110271
     11 H                     0.203390
     12 C                    -0.023206
     13 C                    -0.270195
     14 C                     0.050066
     15 H                     0.189884
     16 C                    -0.217020
     17 S                     0.034963
     18 C                    -0.266663
     19 H                     0.103095
     20 H                     0.107842
     21 H                     0.107761
     22 H                     0.199770
  ----------------------------------------
  Sum of atomic charges =     0.000000

                    Cartesian Multipole Moments
 -----------------------------------------------------------------
    Charge (ESU x 10^10)
                -0.0000
    Dipole Moment (Debye)
         X       0.2377      Y       0.5761      Z       1.0054
       Tot       1.1829
    Quadrupole Moments (Debye-Ang)
        XX     -82.2628     XY       7.8519     YY     -74.1758
        XZ       2.5863     YZ       1.4948     ZZ     -85.6188

 Total job time:  560.92s(wall), 557.12s(cpu)
        *  Thank you very much for using Q-Chem.  Have a nice day.  *
