 Q-Chem 5.4, Q-Chem, Inc., Pleasanton, CA (2021)
 Q-Chem 5.4.0 for Intel X86 EM64T Linux

User input:
--------------------------------------------------------------
$molecule
0 1
C	-0.671636	-3.866725	0.386946
C	0.530345	-3.703963	-0.306544
C	0.923770	-2.357056	-0.533261
H	1.128109	-4.561092	-0.651857
C	-0.000000	-1.440664	-0.000000
S	-1.337557	-2.286957	0.772250
C	2.184153	-1.978743	-1.260680
H	2.742769	-2.878678	-1.583283
H	2.863347	-1.376015	-0.622180
H	1.971094	-1.375728	-2.168011
H	-1.191474	-4.783437	0.686807
C	0.000000	0.000000	0.000000
C	0.365003	0.782674	1.099446
C	0.949885	2.036912	0.776721
H	0.209135	0.448431	2.136088
C	1.043159	2.236886	-0.612546
S	0.398297	0.854094	-1.486809
C	1.409609	3.022738	1.814609
H	1.229726	2.636980	2.836676
H	0.877346	3.992870	1.726239
H	2.494910	3.238558	1.726228
H	1.444334	3.097160	-1.161575
$end

$rem
JOBTYPE		SP
EXCHANGE	HF
CORRELATION	pRIMP2
BASIS		cc-pvtz
METHOD		rimp2
AUX_BASIS	rimp2-cc-pvtz
SOLVENT_METHOD	PCM
PURECART	11111
SYMMETRY	false
MEM_TOTAL	110000
SCF_CONVERGENCE = 6
THRESH=10
$end

$solvent
dielectric 4.90
$end
--------------------------------------------------------------

             Standard Nuclear Orientation (Angstroms)
    I     Atom           X                Y                Z
 ----------------------------------------------------------------
    1      C      -0.6716360000    -3.8667250000     0.3869460000
    2      C       0.5303450000    -3.7039630000    -0.3065440000
    3      C       0.9237700000    -2.3570560000    -0.5332610000
    4      H       1.1281090000    -4.5610920000    -0.6518570000
    5      C       0.0000000000    -1.4406640000     0.0000000000
    6      S      -1.3375570000    -2.2869570000     0.7722500000
    7      C       2.1841530000    -1.9787430000    -1.2606800000
    8      H       2.7427690000    -2.8786780000    -1.5832830000
    9      H       2.8633470000    -1.3760150000    -0.6221800000
   10      H       1.9710940000    -1.3757280000    -2.1680110000
   11      H      -1.1914740000    -4.7834370000     0.6868070000
   12      C       0.0000000000     0.0000000000     0.0000000000
   13      C       0.3650030000     0.7826740000     1.0994460000
   14      C       0.9498850000     2.0369120000     0.7767210000
   15      H       0.2091350000     0.4484310000     2.1360880000
   16      C       1.0431590000     2.2368860000    -0.6125460000
   17      S       0.3982970000     0.8540940000    -1.4868090000
   18      C       1.4096090000     3.0227380000     1.8146090000
   19      H       1.2297260000     2.6369800000     2.8366760000
   20      H       0.8773460000     3.9928700000     1.7262390000
   21      H       2.4949100000     3.2385580000     1.7262280000
   22      H       1.4443340000     3.0971600000    -1.1615750000
 ----------------------------------------------------------------

   10   -1179.6722358686      5.35e-07  Convergence criterion met
 Total energy in the final basis set =    -1179.6722358686
        RIMP2         total energy =     -1181.6551272071 a.u.

                    Orbital Energies (a.u.)
 --------------------------------------------------------------

 Alpha MOs
 -- Occupied --
-91.9847 -91.9823 -11.2758 -11.2747 -11.2692 -11.2688 -11.2518 -11.2501
-11.2466 -11.2412 -11.2295 -11.2263  -8.9844  -8.9820  -6.6653  -6.6647
 -6.6641  -6.6629  -6.6624  -6.6618  -1.1802  -1.1490  -1.0415  -1.0208
 -0.9983  -0.9535  -0.9127  -0.8924  -0.7986  -0.7577  -0.7279  -0.6952
 -0.6603  -0.6165  -0.5817  -0.5788  -0.5741  -0.5696  -0.5512  -0.5321
 -0.5278  -0.5198  -0.5111  -0.4928  -0.4804  -0.4655  -0.4567  -0.3509
 -0.3410  -0.3310  -0.2866

          Ground-State Mulliken Net Atomic Charges

     Atom                 Charge (a.u.)
  ----------------------------------------
      1 C                    -0.217329
      2 C                    -0.251881
      3 C                     0.054160
      4 H                     0.183889
      5 C                    -0.025331
      6 S                     0.018456
      7 C                    -0.288872
      8 H                     0.108392
      9 H                     0.114152
     10 H                     0.113620
     11 H                     0.203486
     12 C                    -0.046965
     13 C                    -0.217066
     14 C                     0.017361
     15 H                     0.187973
     16 C                    -0.225101
     17 S                     0.023657
     18 C                    -0.269594
     19 H                     0.103054
     20 H                     0.108129
     21 H                     0.107429
     22 H                     0.198379
  ----------------------------------------
  Sum of atomic charges =     0.000000

                    Cartesian Multipole Moments
 -----------------------------------------------------------------
    Charge (ESU x 10^10)
                -0.0000
    Dipole Moment (Debye)
         X       2.2515      Y       0.5648      Z       0.6712
       Tot       2.4163
    Quadrupole Moments (Debye-Ang)
        XX     -86.0356     XY       2.4826     YY     -71.6701
        XZ      -2.4345     YZ       2.0011     ZZ     -84.8327

 Total job time:  563.44s(wall), 559.64s(cpu)
        *  Thank you very much for using Q-Chem.  Have a nice day.  *
