 Q-Chem 5.4, Q-Chem, Inc., Pleasanton, CA (2021)
 Q-Chem 5.4.0 for Intel X86 EM64T Linux

User input:
--------------------------------------------------------------
$molecule
0 1
C	-0.265779	-3.866725	0.728138
C	0.209225	-3.703963	-0.575726
C	0.364875	-2.357056	-1.002290
H	0.445176	-4.561092	-1.224486
C	-0.000000	-1.440664	-0.000000
S	-0.528236	-2.286957	1.451343
C	0.862808	-1.978743	-2.369683
H	1.083368	-2.878678	-2.975883
H	1.793522	-1.376015	-2.317142
H	0.116375	-1.375728	-2.927787
H	-0.471251	-4.783437	1.291990
C	0.000000	0.000000	0.000000
C	0.555137	0.661535	1.099446
C	1.444710	1.721658	0.776721
H	0.318072	0.379023	2.136088
C	1.586563	1.890676	-0.612546
S	0.605781	0.721904	-1.486809
C	2.143920	2.554907	1.814609
H	1.870325	2.228851	2.836676
H	1.880882	3.629742	1.726239
H	3.248098	2.482476	1.726228
H	2.196723	2.617806	-1.161575
$end

$rem
JOBTYPE		SP
EXCHANGE	HF
CORRELATION	pRIMP2
BASIS		cc-pvtz
METHOD		rimp2
AUX_BASIS	rimp2-cc-pvtz
SOLVENT_METHOD	PCM
PURECART	11111
SYMMETRY	false
MEM_TOTAL	110000
SCF_CONVERGENCE = 6
THRESH=10
$end

$solvent
dielectric 4.90
$end
--------------------------------------------------------------

             Standard Nuclear Orientation (Angstroms)
    I     Atom           X                Y                Z
 ----------------------------------------------------------------
    1      C      -0.2657790000    -3.8667250000     0.7281380000
    2      C       0.2092250000    -3.7039630000    -0.5757260000
    3      C       0.3648750000    -2.3570560000    -1.0022900000
    4      H       0.4451760000    -4.5610920000    -1.2244860000
    5      C       0.0000000000    -1.4406640000     0.0000000000
    6      S      -0.5282360000    -2.2869570000     1.4513430000
    7      C       0.8628080000    -1.9787430000    -2.3696830000
    8      H       1.0833680000    -2.8786780000    -2.9758830000
    9      H       1.7935220000    -1.3760150000    -2.3171420000
   10      H       0.1163750000    -1.3757280000    -2.9277870000
   11      H      -0.4712510000    -4.7834370000     1.2919900000
   12      C       0.0000000000     0.0000000000     0.0000000000
   13      C       0.5551370000     0.6615350000     1.0994460000
   14      C       1.4447100000     1.7216580000     0.7767210000
   15      H       0.3180720000     0.3790230000     2.1360880000
   16      C       1.5865630000     1.8906760000    -0.6125460000
   17      S       0.6057810000     0.7219040000    -1.4868090000
   18      C       2.1439200000     2.5549070000     1.8146090000
   19      H       1.8703250000     2.2288510000     2.8366760000
   20      H       1.8808820000     3.6297420000     1.7262390000
   21      H       3.2480980000     2.4824760000     1.7262280000
   22      H       2.1967230000     2.6178060000    -1.1615750000
 ----------------------------------------------------------------

   10   -1179.6447619874      7.99e-07  Convergence criterion met
 Total energy in the final basis set =    -1179.6447619874
        RIMP2         total energy =     -1181.6359093969 a.u.

                    Orbital Energies (a.u.)
 --------------------------------------------------------------

 Alpha MOs
 -- Occupied --
-91.9824 -91.9786 -11.2793 -11.2737 -11.2727 -11.2644 -11.2526 -11.2503
-11.2439 -11.2403 -11.2298 -11.2247  -8.9831  -8.9789  -6.6638  -6.6632
 -6.6627  -6.6599  -6.6593  -6.6587  -1.1850  -1.1476  -1.0443  -1.0229
 -0.9983  -0.9515  -0.9116  -0.8954  -0.7961  -0.7644  -0.7228  -0.6952
 -0.6582  -0.6169  -0.5856  -0.5817  -0.5775  -0.5692  -0.5510  -0.5337
 -0.5244  -0.5218  -0.5120  -0.4950  -0.4766  -0.4620  -0.4466  -0.3695
 -0.3401  -0.3361  -0.2655

          Ground-State Mulliken Net Atomic Charges

     Atom                 Charge (a.u.)
  ----------------------------------------
      1 C                    -0.224665
      2 C                    -0.250961
      3 C                     0.035282
      4 H                     0.183883
      5 C                    -0.023841
      6 S                    -0.007417
      7 C                    -0.296827
      8 H                     0.107485
      9 H                     0.118974
     10 H                     0.107278
     11 H                     0.203520
     12 C                    -0.021777
     13 C                    -0.186405
     14 C                     0.009358
     15 H                     0.182838
     16 C                    -0.220070
     17 S                     0.032881
     18 C                    -0.267676
     19 H                     0.103022
     20 H                     0.108141
     21 H                     0.106802
     22 H                     0.200174
  ----------------------------------------
  Sum of atomic charges =     0.000000

                    Cartesian Multipole Moments
 -----------------------------------------------------------------
    Charge (ESU x 10^10)
                -0.0000
    Dipole Moment (Debye)
         X       2.2066      Y       0.8211      Z      -0.1185
       Tot       2.3574
    Quadrupole Moments (Debye-Ang)
        XX     -86.9867     XY       4.8548     YY     -75.7875
        XZ      -1.6872     YZ       2.8101     ZZ     -80.6449

 Total job time:  587.69s(wall), 584.16s(cpu)
        *  Thank you very much for using Q-Chem.  Have a nice day.  *
