 Q-Chem 5.4, Q-Chem, Inc., Pleasanton, CA (2021)
 Q-Chem 5.4.0 for Intel X86 EM64T Linux

User input:
--------------------------------------------------------------
$molecule
0 1
C	-0.593324	-3.866725	-0.498788
C	0.469446	-3.703963	0.393517
C	0.817050	-2.357056	0.685674
H	0.998381	-4.561092	0.837128
C	0.000000	-1.440664	0.000000
S	-1.183149	-2.286957	-0.992768
C	1.931676	-1.978743	1.621254
H	2.425882	-2.878678	2.035845
H	1.563980	-1.376015	2.477868
H	2.711417	-1.375728	1.110719
H	-1.052896	-4.783437	-0.884718
C	0.000000	0.000000	0.000000
C	0.223548	0.834165	1.099446
C	0.581748	2.170912	0.776721
H	0.128089	0.477934	2.136088
C	0.638880	2.384045	-0.612546
S	0.243934	0.910282	-1.486809
C	0.863301	3.221592	1.814609
H	0.753137	2.810458	2.836676
H	0.170663	4.084559	1.726239
H	1.894637	3.622593	1.726228
H	0.884575	3.300913	-1.161575
$end

$rem
JOBTYPE		SP
EXCHANGE	HF
CORRELATION	pRIMP2
BASIS		cc-pvtz
METHOD		rimp2
AUX_BASIS	rimp2-cc-pvtz
SOLVENT_METHOD	PCM
PURECART	11111
SYMMETRY	false
MEM_TOTAL	110000
SCF_CONVERGENCE = 6
THRESH=10
$end

$solvent
dielectric 4.90
$end
--------------------------------------------------------------

             Standard Nuclear Orientation (Angstroms)
    I     Atom           X                Y                Z
 ----------------------------------------------------------------
    1      C      -0.5933240000    -3.8667250000    -0.4987880000
    2      C       0.4694460000    -3.7039630000     0.3935170000
    3      C       0.8170500000    -2.3570560000     0.6856740000
    4      H       0.9983810000    -4.5610920000     0.8371280000
    5      C       0.0000000000    -1.4406640000     0.0000000000
    6      S      -1.1831490000    -2.2869570000    -0.9927680000
    7      C       1.9316760000    -1.9787430000     1.6212540000
    8      H       2.4258820000    -2.8786780000     2.0358450000
    9      H       1.5639800000    -1.3760150000     2.4778680000
   10      H       2.7114170000    -1.3757280000     1.1107190000
   11      H      -1.0528960000    -4.7834370000    -0.8847180000
   12      C       0.0000000000     0.0000000000     0.0000000000
   13      C       0.2235480000     0.8341650000     1.0994460000
   14      C       0.5817480000     2.1709120000     0.7767210000
   15      H       0.1280890000     0.4779340000     2.1360880000
   16      C       0.6388800000     2.3840450000    -0.6125460000
   17      S       0.2439340000     0.9102820000    -1.4868090000
   18      C       0.8633010000     3.2215920000     1.8146090000
   19      H       0.7531370000     2.8104580000     2.8366760000
   20      H       0.1706630000     4.0845590000     1.7262390000
   21      H       1.8946370000     3.6225930000     1.7262280000
   22      H       0.8845750000     3.3009130000    -1.1615750000
 ----------------------------------------------------------------

   10   -1179.6824004077      5.22e-07  Convergence criterion met
 Total energy in the final basis set =    -1179.6824004077
        RIMP2         total energy =     -1181.6623442701 a.u.

                    Orbital Energies (a.u.)
 --------------------------------------------------------------

 Alpha MOs
 -- Occupied --
-91.9855 -91.9837 -11.2788 -11.2750 -11.2722 -11.2657 -11.2538 -11.2517
-11.2426 -11.2423 -11.2294 -11.2293  -8.9851  -8.9836  -6.6660  -6.6654
 -6.6648  -6.6645  -6.6639  -6.6633  -1.1799  -1.1497  -1.0410  -1.0243
 -0.9964  -0.9553  -0.9132  -0.8930  -0.8012  -0.7539  -0.7306  -0.6976
 -0.6617  -0.6154  -0.5856  -0.5803  -0.5707  -0.5652  -0.5518  -0.5355
 -0.5289  -0.5220  -0.5076  -0.4916  -0.4855  -0.4689  -0.4584  -0.3500
 -0.3414  -0.3404  -0.2826

          Ground-State Mulliken Net Atomic Charges

     Atom                 Charge (a.u.)
  ----------------------------------------
      1 C                    -0.212876
      2 C                    -0.249461
      3 C                     0.056525
      4 H                     0.184206
      5 C                    -0.033445
      6 S                     0.019972
      7 C                    -0.284805
      8 H                     0.112278
      9 H                     0.106970
     10 H                     0.115035
     11 H                     0.205058
     12 C                    -0.013418
     13 C                    -0.264453
     14 C                     0.035987
     15 H                     0.192846
     16 C                    -0.243992
     17 S                     0.026616
     18 C                    -0.270725
     19 H                     0.102245
     20 H                     0.108740
     21 H                     0.108342
     22 H                     0.198353
  ----------------------------------------
  Sum of atomic charges =     0.000000

                    Cartesian Multipole Moments
 -----------------------------------------------------------------
    Charge (ESU x 10^10)
                -0.0000
    Dipole Moment (Debye)
         X       1.6864      Y       0.2552      Z       2.4547
       Tot       2.9891
    Quadrupole Moments (Debye-Ang)
        XX     -88.1679     XY       1.1498     YY     -69.3690
        XZ       3.4769     YZ      -0.4084     ZZ     -84.0289

 Total job time:  554.48s(wall), 549.61s(cpu)
        *  Thank you very much for using Q-Chem.  Have a nice day.  *
