 Q-Chem 5.4, Q-Chem, Inc., Pleasanton, CA (2021)
 Q-Chem 5.4.0 for Intel X86 EM64T Linux

User input:
--------------------------------------------------------------
$molecule
0 1
C	-0.670924	-3.866725	-0.388181
C	0.530648	-3.703963	0.306020
C	0.923703	-2.357056	0.533378
H	1.128579	-4.561092	0.651043
C	-0.000000	-1.440664	-0.000000
S	-1.337567	-2.286957	-0.772234
C	2.183857	-1.978743	1.261192
H	2.742548	-2.878678	1.583666
H	1.970497	-1.376015	2.168641
H	2.863099	-1.375728	0.623012
H	-1.190530	-4.783437	-0.688443
C	0.000000	0.000000	0.000000
C	0.555137	0.661535	1.099446
C	1.444710	1.721658	0.776721
H	0.318072	0.379023	2.136088
C	1.586563	1.890676	-0.612546
S	0.605781	0.721904	-1.486809
C	2.143920	2.554907	1.814609
H	1.870325	2.228851	2.836676
H	1.880882	3.629742	1.726239
H	3.248098	2.482476	1.726228
H	2.196723	2.617806	-1.161575
$end

$rem
JOBTYPE		SP
EXCHANGE	HF
CORRELATION	pRIMP2
BASIS		cc-pvtz
METHOD		rimp2
AUX_BASIS	rimp2-cc-pvtz
SOLVENT_METHOD	PCM
PURECART	11111
SYMMETRY	false
MEM_TOTAL	110000
SCF_CONVERGENCE = 6
THRESH=10
$end

$solvent
dielectric 4.90
$end
--------------------------------------------------------------

             Standard Nuclear Orientation (Angstroms)
    I     Atom           X                Y                Z
 ----------------------------------------------------------------
    1      C      -0.6709240000    -3.8667250000    -0.3881810000
    2      C       0.5306480000    -3.7039630000     0.3060200000
    3      C       0.9237030000    -2.3570560000     0.5333780000
    4      H       1.1285790000    -4.5610920000     0.6510430000
    5      C       0.0000000000    -1.4406640000     0.0000000000
    6      S      -1.3375670000    -2.2869570000    -0.7722340000
    7      C       2.1838570000    -1.9787430000     1.2611920000
    8      H       2.7425480000    -2.8786780000     1.5836660000
    9      H       1.9704970000    -1.3760150000     2.1686410000
   10      H       2.8630990000    -1.3757280000     0.6230120000
   11      H      -1.1905300000    -4.7834370000    -0.6884430000
   12      C       0.0000000000     0.0000000000     0.0000000000
   13      C       0.5551370000     0.6615350000     1.0994460000
   14      C       1.4447100000     1.7216580000     0.7767210000
   15      H       0.3180720000     0.3790230000     2.1360880000
   16      C       1.5865630000     1.8906760000    -0.6125460000
   17      S       0.6057810000     0.7219040000    -1.4868090000
   18      C       2.1439200000     2.5549070000     1.8146090000
   19      H       1.8703250000     2.2288510000     2.8366760000
   20      H       1.8808820000     3.6297420000     1.7262390000
   21      H       3.2480980000     2.4824760000     1.7262280000
   22      H       2.1967230000     2.6178060000    -1.1615750000
 ----------------------------------------------------------------

   10   -1179.6556427048      7.29e-07  Convergence criterion met
 Total energy in the final basis set =    -1179.6556427048
        RIMP2         total energy =     -1181.6430865181 a.u.

                    Orbital Energies (a.u.)
 --------------------------------------------------------------

 Alpha MOs
 -- Occupied --
-91.9839 -91.9782 -11.2761 -11.2732 -11.2677 -11.2661 -11.2526 -11.2511
-11.2487 -11.2400 -11.2305 -11.2275  -8.9839  -8.9783  -6.6647  -6.6640
 -6.6635  -6.6592  -6.6586  -6.6581  -1.1826  -1.1480  -1.0425  -1.0215
 -0.9971  -0.9538  -0.9128  -0.8917  -0.7975  -0.7517  -0.7349  -0.6973
 -0.6582  -0.6169  -0.5862  -0.5806  -0.5713  -0.5655  -0.5503  -0.5354
 -0.5268  -0.5233  -0.5101  -0.4896  -0.4750  -0.4650  -0.4563  -0.3447
 -0.3410  -0.3349  -0.2860

          Ground-State Mulliken Net Atomic Charges

     Atom                 Charge (a.u.)
  ----------------------------------------
      1 C                    -0.214719
      2 C                    -0.255765
      3 C                     0.055456
      4 H                     0.183431
      5 C                    -0.015823
      6 S                     0.008955
      7 C                    -0.293695
      8 H                     0.113980
      9 H                     0.108582
     10 H                     0.115968
     11 H                     0.202867
     12 C                    -0.071217
     13 C                    -0.242218
     14 C                     0.041839
     15 H                     0.194262
     16 C                    -0.218345
     17 S                     0.034935
     18 C                    -0.269523
     19 H                     0.102863
     20 H                     0.110573
     21 H                     0.107118
     22 H                     0.200477
  ----------------------------------------
  Sum of atomic charges =     0.000000

                    Cartesian Multipole Moments
 -----------------------------------------------------------------
    Charge (ESU x 10^10)
                -0.0000
    Dipole Moment (Debye)
         X       2.9987      Y       0.6453      Z       2.3488
       Tot       3.8633
    Quadrupole Moments (Debye-Ang)
        XX     -83.2096     XY       3.8340     YY     -74.3557
        XZ       3.2154     YZ      -0.4445     ZZ     -84.8796

 Total job time:  598.51s(wall), 593.99s(cpu)
        *  Thank you very much for using Q-Chem.  Have a nice day.  *
