 Q-Chem 5.4, Q-Chem, Inc., Pleasanton, CA (2021)
 Q-Chem 5.4.0 for Intel X86 EM64T Linux

User input:
--------------------------------------------------------------
$molecule
0 1
C	0.670748	-3.808105	0.775127
C	0.642889	-3.647744	-0.612565
C	0.409365	-2.321236	-1.066639
H	0.791563	-4.491881	-1.302900
C	0.250169	-1.418777	0.000000
S	0.397135	-2.252211	1.544483
C	0.343896	-1.948630	-2.521872
H	0.500095	-2.834906	-3.166949
H	1.118228	-1.200068	-2.790821
H	-0.639561	-1.509723	-2.791023
H	0.829705	-4.710930	1.375251
C	0.000000	0.000000	0.000000
C	0.000033	0.863600	1.099446
C	0.000052	2.247508	0.776721
H	0.000026	0.494801	2.136088
C	0.000074	2.468165	-0.612546
S	0.000024	0.942399	-1.486809
C	0.000075	3.335257	1.814609
H	0.000074	2.909620	2.836676
H	-0.892314	3.989552	1.726239
H	0.892483	3.989525	1.726228
H	0.000094	3.417382	-1.161575
$end

$rem
JOBTYPE		SP
EXCHANGE	HF
CORRELATION	pRIMP2
BASIS		cc-pvtz
METHOD		rimp2
AUX_BASIS	rimp2-cc-pvtz
SOLVENT_METHOD	PCM
PURECART	11111
SYMMETRY	false
MEM_TOTAL	110000
SCF_CONVERGENCE = 6
THRESH=10
$end

$solvent
dielectric 4.90
$end
--------------------------------------------------------------

             Standard Nuclear Orientation (Angstroms)
    I     Atom           X                Y                Z
 ----------------------------------------------------------------
    1      C       0.6707480000    -3.8081050000     0.7751270000
    2      C       0.6428890000    -3.6477440000    -0.6125650000
    3      C       0.4093650000    -2.3212360000    -1.0666390000
    4      H       0.7915630000    -4.4918810000    -1.3029000000
    5      C       0.2501690000    -1.4187770000     0.0000000000
    6      S       0.3971350000    -2.2522110000     1.5444830000
    7      C       0.3438960000    -1.9486300000    -2.5218720000
    8      H       0.5000950000    -2.8349060000    -3.1669490000
    9      H       1.1182280000    -1.2000680000    -2.7908210000
   10      H      -0.6395610000    -1.5097230000    -2.7910230000
   11      H       0.8297050000    -4.7109300000     1.3752510000
   12      C       0.0000000000     0.0000000000     0.0000000000
   13      C       0.0000330000     0.8636000000     1.0994460000
   14      C       0.0000520000     2.2475080000     0.7767210000
   15      H       0.0000260000     0.4948010000     2.1360880000
   16      C       0.0000740000     2.4681650000    -0.6125460000
   17      S       0.0000240000     0.9423990000    -1.4868090000
   18      C       0.0000750000     3.3352570000     1.8146090000
   19      H       0.0000740000     2.9096200000     2.8366760000
   20      H      -0.8923140000     3.9895520000     1.7262390000
   21      H       0.8924830000     3.9895250000     1.7262280000
   22      H       0.0000940000     3.4173820000    -1.1615750000
 ----------------------------------------------------------------

   10   -1179.6844553769      5.34e-07  Convergence criterion met
 Total energy in the final basis set =    -1179.6844553769
        RIMP2         total energy =     -1181.6654911046 a.u.

                    Orbital Energies (a.u.)
 --------------------------------------------------------------

 Alpha MOs
 -- Occupied --
-91.9851 -91.9846 -11.2841 -11.2786 -11.2730 -11.2619 -11.2542 -11.2523
-11.2437 -11.2398 -11.2304 -11.2288  -8.9849  -8.9846  -6.6658  -6.6655
 -6.6652  -6.6650  -6.6646  -6.6643  -1.1817  -1.1501  -1.0424  -1.0261
 -0.9990  -0.9524  -0.9153  -0.8953  -0.8004  -0.7657  -0.7194  -0.6961
 -0.6635  -0.6157  -0.5846  -0.5828  -0.5773  -0.5696  -0.5532  -0.5343
 -0.5231  -0.5213  -0.5117  -0.4964  -0.4903  -0.4675  -0.4503  -0.3716
 -0.3436  -0.3404  -0.2679

          Ground-State Mulliken Net Atomic Charges

     Atom                 Charge (a.u.)
  ----------------------------------------
      1 C                    -0.211586
      2 C                    -0.254689
      3 C                     0.051124
      4 H                     0.185062
      5 C                    -0.022184
      6 S                     0.005102
      7 C                    -0.322881
      8 H                     0.118774
      9 H                     0.115803
     10 H                     0.116225
     11 H                     0.207696
     12 C                     0.064501
     13 C                    -0.279667
     14 C                     0.039627
     15 H                     0.176223
     16 C                    -0.260897
     17 S                     0.023117
     18 C                    -0.270358
     19 H                     0.102769
     20 H                     0.108349
     21 H                     0.108816
     22 H                     0.199074
  ----------------------------------------
  Sum of atomic charges =     0.000000

                    Cartesian Multipole Moments
 -----------------------------------------------------------------
    Charge (ESU x 10^10)
                -0.0000
    Dipole Moment (Debye)
         X       0.3168      Y       0.0850      Z      -0.1926
       Tot       0.3803
    Quadrupole Moments (Debye-Ang)
        XX     -92.3621     XY      -2.3011     YY     -68.9638
        XZ      -0.4215     YZ       3.3395     ZZ     -79.7914

 Total job time:  572.36s(wall), 568.56s(cpu)
        *  Thank you very much for using Q-Chem.  Have a nice day.  *
