 Q-Chem 5.4, Q-Chem, Inc., Pleasanton, CA (2021)
 Q-Chem 5.4.0 for Intel X86 EM64T Linux

User input:
--------------------------------------------------------------
$molecule
0 1
C	0.728625	-3.866725	-0.264439
C	-0.575519	-3.703963	0.209794
C	-1.002336	-2.357056	0.364749
H	-1.224165	-4.561092	0.446060
C	-0.000000	-1.440664	-0.000000
S	1.451336	-2.286957	-0.528253
C	-2.369885	-1.978743	0.862253
H	-2.976034	-2.878678	1.082953
H	-2.927887	-1.376015	0.115513
H	-2.317620	-1.375728	1.792797
H	1.292636	-4.783437	-0.469476
C	0.000000	0.000000	0.000000
C	0.555137	0.661535	1.099446
C	1.444710	1.721658	0.776721
H	0.318072	0.379023	2.136088
C	1.586563	1.890676	-0.612546
S	0.605781	0.721904	-1.486809
C	2.143920	2.554907	1.814609
H	1.870325	2.228851	2.836676
H	1.880882	3.629742	1.726239
H	3.248098	2.482476	1.726228
H	2.196723	2.617806	-1.161575
$end

$rem
JOBTYPE		SP
EXCHANGE	HF
CORRELATION	pRIMP2
BASIS		cc-pvtz
METHOD		rimp2
AUX_BASIS	rimp2-cc-pvtz
SOLVENT_METHOD	PCM
PURECART	11111
SYMMETRY	false
MEM_TOTAL	110000
SCF_CONVERGENCE = 6
THRESH=10
$end

$solvent
dielectric 4.90
$end
--------------------------------------------------------------

             Standard Nuclear Orientation (Angstroms)
    I     Atom           X                Y                Z
 ----------------------------------------------------------------
    1      C       0.7286250000    -3.8667250000    -0.2644390000
    2      C      -0.5755190000    -3.7039630000     0.2097940000
    3      C      -1.0023360000    -2.3570560000     0.3647490000
    4      H      -1.2241650000    -4.5610920000     0.4460600000
    5      C       0.0000000000    -1.4406640000     0.0000000000
    6      S       1.4513360000    -2.2869570000    -0.5282530000
    7      C      -2.3698850000    -1.9787430000     0.8622530000
    8      H      -2.9760340000    -2.8786780000     1.0829530000
    9      H      -2.9278870000    -1.3760150000     0.1155130000
   10      H      -2.3176200000    -1.3757280000     1.7927970000
   11      H       1.2926360000    -4.7834370000    -0.4694760000
   12      C       0.0000000000     0.0000000000     0.0000000000
   13      C       0.5551370000     0.6615350000     1.0994460000
   14      C       1.4447100000     1.7216580000     0.7767210000
   15      H       0.3180720000     0.3790230000     2.1360880000
   16      C       1.5865630000     1.8906760000    -0.6125460000
   17      S       0.6057810000     0.7219040000    -1.4868090000
   18      C       2.1439200000     2.5549070000     1.8146090000
   19      H       1.8703250000     2.2288510000     2.8366760000
   20      H       1.8808820000     3.6297420000     1.7262390000
   21      H       3.2480980000     2.4824760000     1.7262280000
   22      H       2.1967230000     2.6178060000    -1.1615750000
 ----------------------------------------------------------------

   10   -1179.6545303534      5.93e-07  Convergence criterion met
 Total energy in the final basis set =    -1179.6545303534
        RIMP2         total energy =     -1181.6399388594 a.u.

                    Orbital Energies (a.u.)
 --------------------------------------------------------------

 Alpha MOs
 -- Occupied --
-91.9845 -91.9797 -11.2761 -11.2719 -11.2672 -11.2663 -11.2529 -11.2518
-11.2447 -11.2382 -11.2300 -11.2272  -8.9845  -8.9796  -6.6653  -6.6647
 -6.6642  -6.6605  -6.6599  -6.6593  -1.1828  -1.1475  -1.0426  -1.0201
 -0.9972  -0.9535  -0.9109  -0.8918  -0.7994  -0.7494  -0.7358  -0.6930
 -0.6586  -0.6177  -0.5844  -0.5792  -0.5692  -0.5681  -0.5504  -0.5327
 -0.5314  -0.5178  -0.5087  -0.4899  -0.4739  -0.4667  -0.4600  -0.3568
 -0.3346  -0.3222  -0.2904

          Ground-State Mulliken Net Atomic Charges

     Atom                 Charge (a.u.)
  ----------------------------------------
      1 C                    -0.220301
      2 C                    -0.250844
      3 C                     0.046806
      4 H                     0.181350
      5 C                    -0.053374
      6 S                     0.024579
      7 C                    -0.284846
      8 H                     0.106477
      9 H                     0.109679
     10 H                     0.106479
     11 H                     0.202770
     12 C                    -0.055559
     13 C                    -0.173692
     14 C                     0.008021
     15 H                     0.185522
     16 C                    -0.207757
     17 S                     0.025624
     18 C                    -0.268328
     19 H                     0.102749
     20 H                     0.107839
     21 H                     0.107343
     22 H                     0.199463
  ----------------------------------------
  Sum of atomic charges =     0.000000

                    Cartesian Multipole Moments
 -----------------------------------------------------------------
    Charge (ESU x 10^10)
                -0.0000
    Dipole Moment (Debye)
         X       0.3036      Y       0.7649      Z       2.0166
       Tot       2.1781
    Quadrupole Moments (Debye-Ang)
        XX     -82.3584     XY       7.8191     YY     -74.8313
        XZ      -1.4445     YZ      -0.0739     ZZ     -85.4929

 Total job time:  566.68s(wall), 561.38s(cpu)
        *  Thank you very much for using Q-Chem.  Have a nice day.  *
