 Q-Chem 5.4, Q-Chem, Inc., Pleasanton, CA (2021)
 Q-Chem 5.4.0 for Intel X86 EM64T Linux

User input:
--------------------------------------------------------------
$molecule
0 1
C	0.386946	-3.866725	0.671636
C	-0.306544	-3.703963	-0.530345
C	-0.533261	-2.357056	-0.923770
H	-0.651857	-4.561092	-1.128109
C	0.000000	-1.440664	0.000000
S	0.772250	-2.286957	1.337557
C	-1.260680	-1.978743	-2.184153
H	-1.583283	-2.878678	-2.742769
H	-0.622180	-1.376015	-2.863347
H	-2.168011	-1.375728	-1.971094
H	0.686807	-4.783437	1.191474
C	0.000000	0.000000	0.000000
C	0.000033	0.863600	1.099446
C	0.000052	2.247508	0.776721
H	0.000026	0.494801	2.136088
C	0.000074	2.468165	-0.612546
S	0.000024	0.942399	-1.486809
C	0.000075	3.335257	1.814609
H	0.000074	2.909620	2.836676
H	-0.892314	3.989552	1.726239
H	0.892483	3.989525	1.726228
H	0.000094	3.417382	-1.161575
$end

$rem
JOBTYPE		SP
EXCHANGE	HF
CORRELATION	pRIMP2
BASIS		cc-pvtz
METHOD		rimp2
AUX_BASIS	rimp2-cc-pvtz
SOLVENT_METHOD	PCM
PURECART	11111
SYMMETRY	false
MEM_TOTAL	110000
SCF_CONVERGENCE = 6
THRESH=10
$end

$solvent
dielectric 4.90
$end
--------------------------------------------------------------

             Standard Nuclear Orientation (Angstroms)
    I     Atom           X                Y                Z
 ----------------------------------------------------------------
    1      C       0.3869460000    -3.8667250000     0.6716360000
    2      C      -0.3065440000    -3.7039630000    -0.5303450000
    3      C      -0.5332610000    -2.3570560000    -0.9237700000
    4      H      -0.6518570000    -4.5610920000    -1.1281090000
    5      C       0.0000000000    -1.4406640000     0.0000000000
    6      S       0.7722500000    -2.2869570000     1.3375570000
    7      C      -1.2606800000    -1.9787430000    -2.1841530000
    8      H      -1.5832830000    -2.8786780000    -2.7427690000
    9      H      -0.6221800000    -1.3760150000    -2.8633470000
   10      H      -2.1680110000    -1.3757280000    -1.9710940000
   11      H       0.6868070000    -4.7834370000     1.1914740000
   12      C       0.0000000000     0.0000000000     0.0000000000
   13      C       0.0000330000     0.8636000000     1.0994460000
   14      C       0.0000520000     2.2475080000     0.7767210000
   15      H       0.0000260000     0.4948010000     2.1360880000
   16      C       0.0000740000     2.4681650000    -0.6125460000
   17      S       0.0000240000     0.9423990000    -1.4868090000
   18      C       0.0000750000     3.3352570000     1.8146090000
   19      H       0.0000740000     2.9096200000     2.8366760000
   20      H      -0.8923140000     3.9895520000     1.7262390000
   21      H       0.8924830000     3.9895250000     1.7262280000
   22      H       0.0000940000     3.4173820000    -1.1615750000
 ----------------------------------------------------------------

   10   -1179.6868049792      5.35e-07  Convergence criterion met
 Total energy in the final basis set =    -1179.6868049792
        RIMP2         total energy =     -1181.6663980495 a.u.

                    Orbital Energies (a.u.)
 --------------------------------------------------------------

 Alpha MOs
 -- Occupied --
-91.9854 -91.9852 -11.2832 -11.2771 -11.2726 -11.2629 -11.2537 -11.2518
-11.2433 -11.2404 -11.2298 -11.2289  -8.9852  -8.9849  -6.6661  -6.6658
 -6.6656  -6.6652  -6.6649  -6.6646  -1.1807  -1.1500  -1.0416  -1.0249
 -0.9988  -0.9528  -0.9149  -0.8942  -0.8007  -0.7635  -0.7216  -0.6954
 -0.6632  -0.6160  -0.5839  -0.5790  -0.5774  -0.5697  -0.5527  -0.5340
 -0.5253  -0.5201  -0.5102  -0.4958  -0.4894  -0.4677  -0.4542  -0.3636
 -0.3428  -0.3402  -0.2733

          Ground-State Mulliken Net Atomic Charges

     Atom                 Charge (a.u.)
  ----------------------------------------
      1 C                    -0.214016
      2 C                    -0.249753
      3 C                     0.034327
      4 H                     0.184781
      5 C                    -0.023827
      6 S                     0.016330
      7 C                    -0.308295
      8 H                     0.112539
      9 H                     0.112213
     10 H                     0.119494
     11 H                     0.205967
     12 C                     0.045528
     13 C                    -0.264453
     14 C                     0.026921
     15 H                     0.182418
     16 C                    -0.248163
     17 S                     0.021510
     18 C                    -0.271824
     19 H                     0.103006
     20 H                     0.108205
     21 H                     0.108619
     22 H                     0.198472
  ----------------------------------------
  Sum of atomic charges =     0.000000

                    Cartesian Multipole Moments
 -----------------------------------------------------------------
    Charge (ESU x 10^10)
                -0.0000
    Dipole Moment (Debye)
         X      -0.7768      Y       0.1195      Z       0.0662
       Tot       0.7888
    Quadrupole Moments (Debye-Ang)
        XX     -91.0901     XY       1.1003     YY     -68.6097
        XZ       2.9588     YZ       2.9364     ZZ     -81.5900

 Total job time:  582.90s(wall), 578.95s(cpu)
        *  Thank you very much for using Q-Chem.  Have a nice day.  *
