 Q-Chem 5.4, Q-Chem, Inc., Pleasanton, CA (2021)
 Q-Chem 5.4.0 for Intel X86 EM64T Linux

User input:
--------------------------------------------------------------
$molecule
0 1
C	-0.133897	-3.866725	-0.763475
C	0.106669	-3.703963	0.603206
C	0.185154	-2.357056	1.050446
H	0.226709	-4.561092	1.283024
C	-0.000000	-1.440664	-0.000000
S	-0.268206	-2.286957	-1.521018
C	0.437628	-1.978743	2.483610
H	0.549717	-2.878678	3.118875
H	-0.394664	-1.376015	2.903464
H	1.363110	-1.375728	2.593726
H	-0.237880	-4.783437	-1.354522
C	0.000000	0.000000	0.000000
C	0.149995	0.850475	1.099446
C	0.390327	2.213354	0.776721
H	0.085947	0.487279	2.136088
C	0.428665	2.430655	-0.612546
S	0.163670	0.928078	-1.486809
C	0.579235	3.284574	1.814609
H	0.505323	2.865404	2.836676
H	-0.185980	4.083890	1.726239
H	1.571698	3.773937	1.726228
H	0.593515	3.365448	-1.161575
$end

$rem
JOBTYPE		SP
EXCHANGE	HF
CORRELATION	pRIMP2
BASIS		cc-pvtz
METHOD		rimp2
AUX_BASIS	rimp2-cc-pvtz
SOLVENT_METHOD	PCM
PURECART	11111
SYMMETRY	false
MEM_TOTAL	110000
SCF_CONVERGENCE = 6
THRESH=10
$end

$solvent
dielectric 4.90
$end
--------------------------------------------------------------

             Standard Nuclear Orientation (Angstroms)
    I     Atom           X                Y                Z
 ----------------------------------------------------------------
    1      C      -0.1338970000    -3.8667250000    -0.7634750000
    2      C       0.1066690000    -3.7039630000     0.6032060000
    3      C       0.1851540000    -2.3570560000     1.0504460000
    4      H       0.2267090000    -4.5610920000     1.2830240000
    5      C       0.0000000000    -1.4406640000     0.0000000000
    6      S      -0.2682060000    -2.2869570000    -1.5210180000
    7      C       0.4376280000    -1.9787430000     2.4836100000
    8      H       0.5497170000    -2.8786780000     3.1188750000
    9      H      -0.3946640000    -1.3760150000     2.9034640000
   10      H       1.3631100000    -1.3757280000     2.5937260000
   11      H      -0.2378800000    -4.7834370000    -1.3545220000
   12      C       0.0000000000     0.0000000000     0.0000000000
   13      C       0.1499950000     0.8504750000     1.0994460000
   14      C       0.3903270000     2.2133540000     0.7767210000
   15      H       0.0859470000     0.4872790000     2.1360880000
   16      C       0.4286650000     2.4306550000    -0.6125460000
   17      S       0.1636700000     0.9280780000    -1.4868090000
   18      C       0.5792350000     3.2845740000     1.8146090000
   19      H       0.5053230000     2.8654040000     2.8366760000
   20      H      -0.1859800000     4.0838900000     1.7262390000
   21      H       1.5716980000     3.7739370000     1.7262280000
   22      H       0.5935150000     3.3654480000    -1.1615750000
 ----------------------------------------------------------------

   10   -1179.6836004798      5.10e-07  Convergence criterion met
 Total energy in the final basis set =    -1179.6836004798
        RIMP2         total energy =     -1181.6641792612 a.u.

                    Orbital Energies (a.u.)
 --------------------------------------------------------------

 Alpha MOs
 -- Occupied --
-91.9857 -91.9848 -11.2833 -11.2787 -11.2727 -11.2644 -11.2541 -11.2522
-11.2440 -11.2400 -11.2318 -11.2294  -8.9855  -8.9848  -6.6664  -6.6659
 -6.6658  -6.6652  -6.6652  -6.6646  -1.1818  -1.1504  -1.0422  -1.0279
 -0.9959  -0.9564  -0.9148  -0.8947  -0.8033  -0.7572  -0.7270  -0.7011
 -0.6622  -0.6141  -0.5909  -0.5822  -0.5702  -0.5640  -0.5523  -0.5402
 -0.5294  -0.5240  -0.5044  -0.4914  -0.4878  -0.4773  -0.4510  -0.3702
 -0.3478  -0.3376  -0.2689

          Ground-State Mulliken Net Atomic Charges

     Atom                 Charge (a.u.)
  ----------------------------------------
      1 C                    -0.213259
      2 C                    -0.253395
      3 C                     0.071787
      4 H                     0.184405
      5 C                    -0.046147
      6 S                     0.009137
      7 C                    -0.314681
      8 H                     0.118883
      9 H                     0.107411
     10 H                     0.114928
     11 H                     0.207600
     12 C                     0.039027
     13 C                    -0.259523
     14 C                     0.033348
     15 H                     0.195411
     16 C                    -0.254475
     17 S                     0.011833
     18 C                    -0.271037
     19 H                     0.101422
     20 H                     0.108564
     21 H                     0.109049
     22 H                     0.199712
  ----------------------------------------
  Sum of atomic charges =     0.000000

                    Cartesian Multipole Moments
 -----------------------------------------------------------------
    Charge (ESU x 10^10)
                -0.0000
    Dipole Moment (Debye)
         X       0.5960      Y       0.1346      Z       2.9307
       Tot       2.9937
    Quadrupole Moments (Debye-Ang)
        XX     -92.2368     XY       1.5099     YY     -68.5832
        XZ       1.3377     YZ      -1.1642     ZZ     -80.2483

 Total job time:  577.65s(wall), 574.86s(cpu)
        *  Thank you very much for using Q-Chem.  Have a nice day.  *
