 Q-Chem 5.4, Q-Chem, Inc., Pleasanton, CA (2021)
 Q-Chem 5.4.0 for Intel X86 EM64T Linux

User input:
--------------------------------------------------------------
$molecule
0 1
C	-0.388181	-3.866725	0.670924
C	0.306020	-3.703963	-0.530648
C	0.533378	-2.357056	-0.923703
H	0.651043	-4.561092	-1.128579
C	-0.000000	-1.440664	-0.000000
S	-0.772234	-2.286957	1.337567
C	1.261192	-1.978743	-2.183857
H	1.583666	-2.878678	-2.742548
H	2.168641	-1.376015	-1.970497
H	0.623012	-1.375728	-2.863099
H	-0.688443	-4.783437	1.190530
C	0.000000	0.000000	0.000000
C	0.075300	0.860311	1.099446
C	0.195935	2.238951	0.776721
H	0.043151	0.492916	2.136088
C	0.215188	2.458766	-0.612546
S	0.082160	0.938811	-1.486809
C	0.290762	3.322559	1.814609
H	0.253664	2.898542	2.836676
H	-0.541206	4.052140	1.726239
H	1.236797	3.896558	1.726228
H	0.297938	3.404370	-1.161575
$end

$rem
JOBTYPE		SP
EXCHANGE	HF
CORRELATION	pRIMP2
BASIS		cc-pvtz
METHOD		rimp2
AUX_BASIS	rimp2-cc-pvtz
SOLVENT_METHOD	PCM
PURECART	11111
SYMMETRY	false
MEM_TOTAL	110000
SCF_CONVERGENCE = 6
THRESH=10
$end

$solvent
dielectric 4.90
$end
--------------------------------------------------------------

             Standard Nuclear Orientation (Angstroms)
    I     Atom           X                Y                Z
 ----------------------------------------------------------------
    1      C      -0.3881810000    -3.8667250000     0.6709240000
    2      C       0.3060200000    -3.7039630000    -0.5306480000
    3      C       0.5333780000    -2.3570560000    -0.9237030000
    4      H       0.6510430000    -4.5610920000    -1.1285790000
    5      C       0.0000000000    -1.4406640000     0.0000000000
    6      S      -0.7722340000    -2.2869570000     1.3375670000
    7      C       1.2611920000    -1.9787430000    -2.1838570000
    8      H       1.5836660000    -2.8786780000    -2.7425480000
    9      H       2.1686410000    -1.3760150000    -1.9704970000
   10      H       0.6230120000    -1.3757280000    -2.8630990000
   11      H      -0.6884430000    -4.7834370000     1.1905300000
   12      C       0.0000000000     0.0000000000     0.0000000000
   13      C       0.0753000000     0.8603110000     1.0994460000
   14      C       0.1959350000     2.2389510000     0.7767210000
   15      H       0.0431510000     0.4929160000     2.1360880000
   16      C       0.2151880000     2.4587660000    -0.6125460000
   17      S       0.0821600000     0.9388110000    -1.4868090000
   18      C       0.2907620000     3.3225590000     1.8146090000
   19      H       0.2536640000     2.8985420000     2.8366760000
   20      H      -0.5412060000     4.0521400000     1.7262390000
   21      H       1.2367970000     3.8965580000     1.7262280000
   22      H       0.2979380000     3.4043700000    -1.1615750000
 ----------------------------------------------------------------

   10   -1179.6857290494      5.24e-07  Convergence criterion met
 Total energy in the final basis set =    -1179.6857290494
        RIMP2         total energy =     -1181.6656765346 a.u.

                    Orbital Energies (a.u.)
 --------------------------------------------------------------

 Alpha MOs
 -- Occupied --
-91.9852 -91.9850 -11.2831 -11.2773 -11.2724 -11.2630 -11.2535 -11.2517
-11.2433 -11.2407 -11.2295 -11.2289  -8.9849  -8.9847  -6.6659  -6.6656
 -6.6653  -6.6651  -6.6647  -6.6645  -1.1807  -1.1499  -1.0417  -1.0247
 -0.9988  -0.9528  -0.9147  -0.8942  -0.8005  -0.7634  -0.7216  -0.6955
 -0.6630  -0.6159  -0.5839  -0.5790  -0.5774  -0.5697  -0.5526  -0.5338
 -0.5255  -0.5201  -0.5106  -0.4957  -0.4888  -0.4675  -0.4538  -0.3640
 -0.3427  -0.3397  -0.2731

          Ground-State Mulliken Net Atomic Charges

     Atom                 Charge (a.u.)
  ----------------------------------------
      1 C                    -0.214553
      2 C                    -0.249719
      3 C                     0.035387
      4 H                     0.184785
      5 C                    -0.025179
      6 S                     0.016492
      7 C                    -0.308202
      8 H                     0.112366
      9 H                     0.120000
     10 H                     0.111874
     11 H                     0.205885
     12 C                     0.038558
     13 C                    -0.253426
     14 C                     0.022157
     15 H                     0.182330
     16 C                    -0.244573
     17 S                     0.019008
     18 C                    -0.271454
     19 H                     0.102953
     20 H                     0.108452
     21 H                     0.108223
     22 H                     0.198637
  ----------------------------------------
  Sum of atomic charges =     0.000000

                    Cartesian Multipole Moments
 -----------------------------------------------------------------
    Charge (ESU x 10^10)
                -0.0000
    Dipole Moment (Debye)
         X       0.9437      Y       0.1440      Z       0.0568
       Tot       0.9563
    Quadrupole Moments (Debye-Ang)
        XX     -91.0064     XY      -0.1473     YY     -68.8122
        XZ      -2.8611     YZ       2.9185     ZZ     -81.5888

 Total job time:  555.35s(wall), 550.93s(cpu)
        *  Thank you very much for using Q-Chem.  Have a nice day.  *
