 Q-Chem 5.4, Q-Chem, Inc., Pleasanton, CA (2021)
 Q-Chem 5.4.0 for Intel X86 EM64T Linux

User input:
--------------------------------------------------------------
$molecule
0 1
C	0.386946	-3.866725	0.671636
C	-0.306544	-3.703963	-0.530345
C	-0.533261	-2.357056	-0.923770
H	-0.651857	-4.561092	-1.128109
C	0.000000	-1.440664	0.000000
S	0.772250	-2.286957	1.337557
C	-1.260680	-1.978743	-2.184153
H	-1.583283	-2.878678	-2.742769
H	-0.622180	-1.376015	-2.863347
H	-2.168011	-1.375728	-1.971094
H	0.686807	-4.783437	1.191474
C	0.000000	0.000000	0.000000
C	0.747916	0.431772	1.099446
C	1.946425	1.123709	0.776721
H	0.428523	0.247378	2.136088
C	2.137531	1.234018	-0.612546
S	0.816154	0.471179	-1.486809
C	2.888455	1.667564	1.814609
H	2.519842	1.454746	2.836676
H	3.008896	2.767543	1.726239
H	3.901271	1.221850	1.726228
H	2.959587	1.708609	-1.161575
$end

$rem
JOBTYPE		SP
EXCHANGE	HF
CORRELATION	pRIMP2
BASIS		cc-pvtz
METHOD		rimp2
AUX_BASIS	rimp2-cc-pvtz
SOLVENT_METHOD	PCM
PURECART	11111
SYMMETRY	false
MEM_TOTAL	110000
SCF_CONVERGENCE = 6
THRESH=10
$end

$solvent
dielectric 4.90
$end
--------------------------------------------------------------

             Standard Nuclear Orientation (Angstroms)
    I     Atom           X                Y                Z
 ----------------------------------------------------------------
    1      C       0.3869460000    -3.8667250000     0.6716360000
    2      C      -0.3065440000    -3.7039630000    -0.5303450000
    3      C      -0.5332610000    -2.3570560000    -0.9237700000
    4      H      -0.6518570000    -4.5610920000    -1.1281090000
    5      C       0.0000000000    -1.4406640000     0.0000000000
    6      S       0.7722500000    -2.2869570000     1.3375570000
    7      C      -1.2606800000    -1.9787430000    -2.1841530000
    8      H      -1.5832830000    -2.8786780000    -2.7427690000
    9      H      -0.6221800000    -1.3760150000    -2.8633470000
   10      H      -2.1680110000    -1.3757280000    -1.9710940000
   11      H       0.6868070000    -4.7834370000     1.1914740000
   12      C       0.0000000000     0.0000000000     0.0000000000
   13      C       0.7479160000     0.4317720000     1.0994460000
   14      C       1.9464250000     1.1237090000     0.7767210000
   15      H       0.4285230000     0.2473780000     2.1360880000
   16      C       2.1375310000     1.2340180000    -0.6125460000
   17      S       0.8161540000     0.4711790000    -1.4868090000
   18      C       2.8884550000     1.6675640000     1.8146090000
   19      H       2.5198420000     1.4547460000     2.8366760000
   20      H       3.0088960000     2.7675430000     1.7262390000
   21      H       3.9012710000     1.2218500000     1.7262280000
   22      H       2.9595870000     1.7086090000    -1.1615750000
 ----------------------------------------------------------------

   10   -1179.6140403778      9.35e-07  Convergence criterion met
 Total energy in the final basis set =    -1179.6140403778
        RIMP2         total energy =     -1181.6106176276 a.u.

                    Orbital Energies (a.u.)
 --------------------------------------------------------------

 Alpha MOs
 -- Occupied --
-91.9866 -91.9770 -11.2935 -11.2765 -11.2655 -11.2569 -11.2563 -11.2556
-11.2370 -11.2323 -11.2321 -11.2248  -8.9871  -8.9772  -6.6679  -6.6670
 -6.6667  -6.6581  -6.6574  -6.6568  -1.1947  -1.1449  -1.0480  -1.0213
 -1.0032  -0.9467  -0.9153  -0.8912  -0.7978  -0.7666  -0.7276  -0.6886
 -0.6559  -0.6223  -0.5909  -0.5809  -0.5749  -0.5695  -0.5500  -0.5359
 -0.5299  -0.5146  -0.5066  -0.4953  -0.4690  -0.4660  -0.4497  -0.3593
 -0.3475  -0.3344  -0.2654

          Ground-State Mulliken Net Atomic Charges

     Atom                 Charge (a.u.)
  ----------------------------------------
      1 C                    -0.264411
      2 C                    -0.233430
      3 C                    -0.005268
      4 H                     0.181270
      5 C                     0.022508
      6 S                    -0.003141
      7 C                    -0.303479
      8 H                     0.108767
      9 H                     0.105691
     10 H                     0.110114
     11 H                     0.199632
     12 C                    -0.126939
     13 C                    -0.143160
     14 C                    -0.000907
     15 H                     0.201238
     16 C                    -0.169708
     17 S                     0.059484
     18 C                    -0.265990
     19 H                     0.104886
     20 H                     0.110052
     21 H                     0.108051
     22 H                     0.204740
  ----------------------------------------
  Sum of atomic charges =     0.000000

                    Cartesian Multipole Moments
 -----------------------------------------------------------------
    Charge (ESU x 10^10)
                -0.0000
    Dipole Moment (Debye)
         X       2.3049      Y       1.3161      Z       0.2989
       Tot       2.6710
    Quadrupole Moments (Debye-Ang)
        XX     -81.1292     XY       7.1563     YY     -81.1997
        XZ       2.9467     YZ       2.6833     ZZ     -81.2488

 Total job time:  586.90s(wall), 583.31s(cpu)
        *  Thank you very much for using Q-Chem.  Have a nice day.  *
