 Q-Chem 5.4, Q-Chem, Inc., Pleasanton, CA (2021)
 Q-Chem 5.4.0 for Intel X86 EM64T Linux

User input:
--------------------------------------------------------------
$molecule
0 1
C	-0.498788	-3.866725	0.593324
C	0.393517	-3.703963	-0.469446
C	0.685674	-2.357056	-0.817050
H	0.837128	-4.561092	-0.998381
C	-0.000000	-1.440664	-0.000000
S	-0.992768	-2.286957	1.183149
C	1.621254	-1.978743	-1.931676
H	2.035845	-2.878678	-2.425882
H	2.477868	-1.376015	-1.563980
H	1.110719	-1.375728	-2.711417
H	-0.884718	-4.783437	1.052896
C	0.000000	0.000000	0.000000
C	0.149995	0.850475	1.099446
C	0.390327	2.213354	0.776721
H	0.085947	0.487279	2.136088
C	0.428665	2.430655	-0.612546
S	0.163670	0.928078	-1.486809
C	0.579235	3.284574	1.814609
H	0.505323	2.865404	2.836676
H	-0.185980	4.083890	1.726239
H	1.571698	3.773937	1.726228
H	0.593515	3.365448	-1.161575
$end

$rem
JOBTYPE		SP
EXCHANGE	HF
CORRELATION	pRIMP2
BASIS		cc-pvtz
METHOD		rimp2
AUX_BASIS	rimp2-cc-pvtz
SOLVENT_METHOD	PCM
PURECART	11111
SYMMETRY	false
MEM_TOTAL	110000
SCF_CONVERGENCE = 6
THRESH=10
$end

$solvent
dielectric 4.90
$end
--------------------------------------------------------------

             Standard Nuclear Orientation (Angstroms)
    I     Atom           X                Y                Z
 ----------------------------------------------------------------
    1      C      -0.4987880000    -3.8667250000     0.5933240000
    2      C       0.3935170000    -3.7039630000    -0.4694460000
    3      C       0.6856740000    -2.3570560000    -0.8170500000
    4      H       0.8371280000    -4.5610920000    -0.9983810000
    5      C       0.0000000000    -1.4406640000     0.0000000000
    6      S      -0.9927680000    -2.2869570000     1.1831490000
    7      C       1.6212540000    -1.9787430000    -1.9316760000
    8      H       2.0358450000    -2.8786780000    -2.4258820000
    9      H       2.4778680000    -1.3760150000    -1.5639800000
   10      H       1.1107190000    -1.3757280000    -2.7114170000
   11      H      -0.8847180000    -4.7834370000     1.0528960000
   12      C       0.0000000000     0.0000000000     0.0000000000
   13      C       0.1499950000     0.8504750000     1.0994460000
   14      C       0.3903270000     2.2133540000     0.7767210000
   15      H       0.0859470000     0.4872790000     2.1360880000
   16      C       0.4286650000     2.4306550000    -0.6125460000
   17      S       0.1636700000     0.9280780000    -1.4868090000
   18      C       0.5792350000     3.2845740000     1.8146090000
   19      H       0.5053230000     2.8654040000     2.8366760000
   20      H      -0.1859800000     4.0838900000     1.7262390000
   21      H       1.5716980000     3.7739370000     1.7262280000
   22      H       0.5935150000     3.3654480000    -1.1615750000
 ----------------------------------------------------------------

   10   -1179.6836556903      5.06e-07  Convergence criterion met
 Total energy in the final basis set =    -1179.6836556903
        RIMP2         total energy =     -1181.6637920606 a.u.

                    Orbital Energies (a.u.)
 --------------------------------------------------------------

 Alpha MOs
 -- Occupied --
-91.9849 -91.9848 -11.2816 -11.2765 -11.2716 -11.2643 -11.2527 -11.2515
-11.2428 -11.2419 -11.2290 -11.2285  -8.9846  -8.9845  -6.6655  -6.6654
 -6.6650  -6.6649  -6.6644  -6.6642  -1.1802  -1.1497  -1.0414  -1.0235
 -0.9986  -0.9531  -0.9140  -0.8936  -0.8001  -0.7618  -0.7233  -0.6953
 -0.6623  -0.6160  -0.5832  -0.5775  -0.5770  -0.5697  -0.5521  -0.5333
 -0.5265  -0.5197  -0.5104  -0.4950  -0.4868  -0.4669  -0.4554  -0.3591
 -0.3422  -0.3383  -0.2768

          Ground-State Mulliken Net Atomic Charges

     Atom                 Charge (a.u.)
  ----------------------------------------
      1 C                    -0.216090
      2 C                    -0.249238
      3 C                     0.035495
      4 H                     0.184634
      5 C                    -0.026484
      6 S                     0.019588
      7 C                    -0.300683
      8 H                     0.110503
      9 H                     0.118346
     10 H                     0.112502
     11 H                     0.205084
     12 C                     0.014832
     13 C                    -0.240801
     14 C                     0.018669
     15 H                     0.185719
     16 C                    -0.238224
     17 S                     0.019344
     18 C                    -0.270916
     19 H                     0.102889
     20 H                     0.108314
     21 H                     0.108071
     22 H                     0.198446
  ----------------------------------------
  Sum of atomic charges =     0.000000

                    Cartesian Multipole Moments
 -----------------------------------------------------------------
    Charge (ESU x 10^10)
                -0.0000
    Dipole Moment (Debye)
         X       1.3257      Y       0.2575      Z       0.2221
       Tot       1.3686
    Quadrupole Moments (Debye-Ang)
        XX     -89.7114     XY       0.5109     YY     -69.3161
        XZ      -3.1269     YZ       2.6387     ZZ     -82.7047

 Total job time:  551.56s(wall), 548.96s(cpu)
        *  Thank you very much for using Q-Chem.  Have a nice day.  *
