 Q-Chem 5.4, Q-Chem, Inc., Pleasanton, CA (2021)
 Q-Chem 5.4.0 for Intel X86 EM64T Linux

User input:
--------------------------------------------------------------
$molecule
0 1
C	-0.775127	-3.866725	-0.000713
C	0.612565	-3.703963	-0.000302
C	1.066639	-2.357056	0.000067
H	1.302900	-4.561092	-0.000470
C	0.000000	-1.440664	0.000000
S	-1.544483	-2.286957	0.000009
C	2.521872	-1.978743	0.000295
H	3.166949	-2.878678	0.000221
H	2.790821	-1.376015	0.892850
H	2.791023	-1.375728	-0.892005
H	-1.375251	-4.783437	-0.000945
C	0.000000	0.000000	0.000000
C	0.747916	0.431772	1.099446
C	1.946425	1.123709	0.776721
H	0.428523	0.247378	2.136088
C	2.137531	1.234018	-0.612546
S	0.816154	0.471179	-1.486809
C	2.888455	1.667564	1.814609
H	2.519842	1.454746	2.836676
H	3.008896	2.767543	1.726239
H	3.901271	1.221850	1.726228
H	2.959587	1.708609	-1.161575
$end

$rem
JOBTYPE		SP
EXCHANGE	HF
CORRELATION	pRIMP2
BASIS		cc-pvtz
METHOD		rimp2
AUX_BASIS	rimp2-cc-pvtz
SOLVENT_METHOD	PCM
PURECART	11111
SYMMETRY	false
MEM_TOTAL	110000
SCF_CONVERGENCE = 6
THRESH=10
$end

$solvent
dielectric 4.90
$end
--------------------------------------------------------------

             Standard Nuclear Orientation (Angstroms)
    I     Atom           X                Y                Z
 ----------------------------------------------------------------
    1      C      -0.7751270000    -3.8667250000    -0.0007130000
    2      C       0.6125650000    -3.7039630000    -0.0003020000
    3      C       1.0666390000    -2.3570560000     0.0000670000
    4      H       1.3029000000    -4.5610920000    -0.0004700000
    5      C       0.0000000000    -1.4406640000     0.0000000000
    6      S      -1.5444830000    -2.2869570000     0.0000090000
    7      C       2.5218720000    -1.9787430000     0.0002950000
    8      H       3.1669490000    -2.8786780000     0.0002210000
    9      H       2.7908210000    -1.3760150000     0.8928500000
   10      H       2.7910230000    -1.3757280000    -0.8920050000
   11      H      -1.3752510000    -4.7834370000    -0.0009450000
   12      C       0.0000000000     0.0000000000     0.0000000000
   13      C       0.7479160000     0.4317720000     1.0994460000
   14      C       1.9464250000     1.1237090000     0.7767210000
   15      H       0.4285230000     0.2473780000     2.1360880000
   16      C       2.1375310000     1.2340180000    -0.6125460000
   17      S       0.8161540000     0.4711790000    -1.4868090000
   18      C       2.8884550000     1.6675640000     1.8146090000
   19      H       2.5198420000     1.4547460000     2.8366760000
   20      H       3.0088960000     2.7675430000     1.7262390000
   21      H       3.9012710000     1.2218500000     1.7262280000
   22      H       2.9595870000     1.7086090000    -1.1615750000
 ----------------------------------------------------------------

   11   -1179.6112195282      4.99e-07  Convergence criterion met
 Total energy in the final basis set =    -1179.6112195282
        RIMP2         total energy =     -1181.6108257300 a.u.

                    Orbital Energies (a.u.)
 --------------------------------------------------------------

 Alpha MOs
 -- Occupied --
-91.9833 -91.9731 -11.2888 -11.2737 -11.2665 -11.2607 -11.2523 -11.2498
-11.2404 -11.2366 -11.2319 -11.2227  -8.9837  -8.9733  -6.6645  -6.6637
 -6.6634  -6.6542  -6.6535  -6.6530  -1.1912  -1.1446  -1.0461  -1.0161
 -1.0018  -0.9520  -0.9135  -0.8880  -0.7949  -0.7512  -0.7408  -0.6942
 -0.6546  -0.6213  -0.5868  -0.5837  -0.5737  -0.5659  -0.5482  -0.5354
 -0.5251  -0.5229  -0.5131  -0.4866  -0.4683  -0.4625  -0.4407  -0.3540
 -0.3358  -0.3168  -0.2920

          Ground-State Mulliken Net Atomic Charges

     Atom                 Charge (a.u.)
  ----------------------------------------
      1 C                    -0.225905
      2 C                    -0.256845
      3 C                     0.046569
      4 H                     0.181796
      5 C                     0.005072
      6 S                    -0.003307
      7 C                    -0.334064
      8 H                     0.120441
      9 H                     0.116576
     10 H                     0.117522
     11 H                     0.198728
     12 C                    -0.154565
     13 C                    -0.126487
     14 C                    -0.002680
     15 H                     0.192832
     16 C                    -0.177120
     17 S                     0.043023
     18 C                    -0.271288
     19 H                     0.105330
     20 H                     0.116569
     21 H                     0.105112
     22 H                     0.202690
  ----------------------------------------
  Sum of atomic charges =     0.000000

                    Cartesian Multipole Moments
 -----------------------------------------------------------------
    Charge (ESU x 10^10)
                -0.0000
    Dipole Moment (Debye)
         X       4.4622      Y       0.8673      Z       1.6211
       Tot       4.8261
    Quadrupole Moments (Debye-Ang)
        XX     -77.3775     XY       3.1695     YY     -80.6849
        XZ       0.4301     YZ       0.6138     ZZ     -85.7230

 Total job time:  676.52s(wall), 673.67s(cpu)
        *  Thank you very much for using Q-Chem.  Have a nice day.  *
