 Q-Chem 5.4, Q-Chem, Inc., Pleasanton, CA (2021)
 Q-Chem 5.4.0 for Intel X86 EM64T Linux

User input:
--------------------------------------------------------------
$molecule
0 1
C	0.497696	-3.866725	0.594240
C	-0.393981	-3.703963	-0.469057
C	-0.685571	-2.357056	-0.817136
H	-0.837848	-4.561092	-0.997777
C	-0.000000	-1.440664	-0.000000
S	0.992782	-2.286957	1.183137
C	-1.620802	-1.978743	-1.932056
H	-2.035506	-2.878678	-2.426166
H	-1.109943	-1.376015	-2.711806
H	-2.477350	-1.375728	-1.564678
H	0.883271	-4.783437	1.054110
C	0.000000	0.000000	0.000000
C	0.365003	0.782674	1.099446
C	0.949885	2.036912	0.776721
H	0.209135	0.448431	2.136088
C	1.043159	2.236886	-0.612546
S	0.398297	0.854094	-1.486809
C	1.409609	3.022738	1.814609
H	1.229726	2.636980	2.836676
H	0.877346	3.992870	1.726239
H	2.494910	3.238558	1.726228
H	1.444334	3.097160	-1.161575
$end

$rem
JOBTYPE		SP
EXCHANGE	HF
CORRELATION	pRIMP2
BASIS		cc-pvtz
METHOD		rimp2
AUX_BASIS	rimp2-cc-pvtz
SOLVENT_METHOD	PCM
PURECART	11111
SYMMETRY	false
MEM_TOTAL	110000
SCF_CONVERGENCE = 6
THRESH=10
$end

$solvent
dielectric 4.90
$end
--------------------------------------------------------------

             Standard Nuclear Orientation (Angstroms)
    I     Atom           X                Y                Z
 ----------------------------------------------------------------
    1      C       0.4976960000    -3.8667250000     0.5942400000
    2      C      -0.3939810000    -3.7039630000    -0.4690570000
    3      C      -0.6855710000    -2.3570560000    -0.8171360000
    4      H      -0.8378480000    -4.5610920000    -0.9977770000
    5      C       0.0000000000    -1.4406640000     0.0000000000
    6      S       0.9927820000    -2.2869570000     1.1831370000
    7      C      -1.6208020000    -1.9787430000    -1.9320560000
    8      H      -2.0355060000    -2.8786780000    -2.4261660000
    9      H      -1.1099430000    -1.3760150000    -2.7118060000
   10      H      -2.4773500000    -1.3757280000    -1.5646780000
   11      H       0.8832710000    -4.7834370000     1.0541100000
   12      C       0.0000000000     0.0000000000     0.0000000000
   13      C       0.3650030000     0.7826740000     1.0994460000
   14      C       0.9498850000     2.0369120000     0.7767210000
   15      H       0.2091350000     0.4484310000     2.1360880000
   16      C       1.0431590000     2.2368860000    -0.6125460000
   17      S       0.3982970000     0.8540940000    -1.4868090000
   18      C       1.4096090000     3.0227380000     1.8146090000
   19      H       1.2297260000     2.6369800000     2.8366760000
   20      H       0.8773460000     3.9928700000     1.7262390000
   21      H       2.4949100000     3.2385580000     1.7262280000
   22      H       1.4443340000     3.0971600000    -1.1615750000
 ----------------------------------------------------------------

   10   -1179.6764645419      5.18e-07  Convergence criterion met
 Total energy in the final basis set =    -1179.6764645419
        RIMP2         total energy =     -1181.6581587815 a.u.

                    Orbital Energies (a.u.)
 --------------------------------------------------------------

 Alpha MOs
 -- Occupied --
-91.9851 -91.9844 -11.2779 -11.2748 -11.2699 -11.2683 -11.2525 -11.2499
-11.2443 -11.2417 -11.2295 -11.2294  -8.9849  -8.9841  -6.6658  -6.6652
 -6.6650  -6.6646  -6.6644  -6.6638  -1.1813  -1.1494  -1.0418  -1.0235
 -0.9993  -0.9516  -0.9149  -0.8930  -0.7998  -0.7619  -0.7240  -0.6932
 -0.6619  -0.6167  -0.5835  -0.5790  -0.5762  -0.5698  -0.5519  -0.5343
 -0.5259  -0.5190  -0.5088  -0.4954  -0.4848  -0.4679  -0.4565  -0.3545
 -0.3426  -0.3414  -0.2763

          Ground-State Mulliken Net Atomic Charges

     Atom                 Charge (a.u.)
  ----------------------------------------
      1 C                    -0.218256
      2 C                    -0.246582
      3 C                     0.029282
      4 H                     0.183669
      5 C                    -0.012678
      6 S                     0.019962
      7 C                    -0.298998
      8 H                     0.110638
      9 H                     0.111245
     10 H                     0.113695
     11 H                     0.204620
     12 C                     0.031270
     13 C                    -0.313731
     14 C                     0.058331
     15 H                     0.188627
     16 C                    -0.246213
     17 S                     0.035893
     18 C                    -0.268989
     19 H                     0.103253
     20 H                     0.108150
     21 H                     0.108976
     22 H                     0.197835
  ----------------------------------------
  Sum of atomic charges =     0.000000

                    Cartesian Multipole Moments
 -----------------------------------------------------------------
    Charge (ESU x 10^10)
                -0.0000
    Dipole Moment (Debye)
         X      -0.0651      Y       0.3787      Z       0.3110
       Tot       0.4943
    Quadrupole Moments (Debye-Ang)
        XX     -87.9855     XY       5.7529     YY     -70.9394
        XZ       3.6933     YZ       2.6060     ZZ     -82.7083

 Total job time:  551.55s(wall), 548.10s(cpu)
        *  Thank you very much for using Q-Chem.  Have a nice day.  *
