 Q-Chem 5.4, Q-Chem, Inc., Pleasanton, CA (2021)
 Q-Chem 5.4.0 for Intel X86 EM64T Linux

User input:
--------------------------------------------------------------
$molecule
0 1
C	-0.671636	-3.866725	0.386946
C	0.530345	-3.703963	-0.306544
C	0.923770	-2.357056	-0.533261
H	1.128109	-4.561092	-0.651857
C	0.000000	-1.440664	0.000000
S	-1.337557	-2.286957	0.772250
C	2.184153	-1.978743	-1.260680
H	2.742769	-2.878678	-1.583283
H	2.863347	-1.376015	-0.622180
H	1.971094	-1.375728	-2.168011
H	-1.191474	-4.783437	0.686807
C	0.000000	0.000000	0.000000
C	0.661577	0.555087	1.099446
C	1.721724	1.444630	0.776721
H	0.379056	0.318032	2.136088
C	1.890772	1.586449	-0.612546
S	0.721935	0.605744	-1.486809
C	2.555004	2.143805	1.814609
H	2.228946	1.870211	2.836676
H	2.482605	3.247987	1.726239
H	3.629830	1.880735	1.726228
H	2.617927	2.196579	-1.161575
$end

$rem
JOBTYPE		SP
EXCHANGE	HF
CORRELATION	pRIMP2
BASIS		cc-pvtz
METHOD		rimp2
AUX_BASIS	rimp2-cc-pvtz
SOLVENT_METHOD	PCM
PURECART	11111
SYMMETRY	false
MEM_TOTAL	110000
SCF_CONVERGENCE = 6
THRESH=10
$end

$solvent
dielectric 4.90
$end
--------------------------------------------------------------

             Standard Nuclear Orientation (Angstroms)
    I     Atom           X                Y                Z
 ----------------------------------------------------------------
    1      C      -0.6716360000    -3.8667250000     0.3869460000
    2      C       0.5303450000    -3.7039630000    -0.3065440000
    3      C       0.9237700000    -2.3570560000    -0.5332610000
    4      H       1.1281090000    -4.5610920000    -0.6518570000
    5      C       0.0000000000    -1.4406640000     0.0000000000
    6      S      -1.3375570000    -2.2869570000     0.7722500000
    7      C       2.1841530000    -1.9787430000    -1.2606800000
    8      H       2.7427690000    -2.8786780000    -1.5832830000
    9      H       2.8633470000    -1.3760150000    -0.6221800000
   10      H       1.9710940000    -1.3757280000    -2.1680110000
   11      H      -1.1914740000    -4.7834370000     0.6868070000
   12      C       0.0000000000     0.0000000000     0.0000000000
   13      C       0.6615770000     0.5550870000     1.0994460000
   14      C       1.7217240000     1.4446300000     0.7767210000
   15      H       0.3790560000     0.3180320000     2.1360880000
   16      C       1.8907720000     1.5864490000    -0.6125460000
   17      S       0.7219350000     0.6057440000    -1.4868090000
   18      C       2.5550040000     2.1438050000     1.8146090000
   19      H       2.2289460000     1.8702110000     2.8366760000
   20      H       2.4826050000     3.2479870000     1.7262390000
   21      H       3.6298300000     1.8807350000     1.7262280000
   22      H       2.6179270000     2.1965790000    -1.1615750000
 ----------------------------------------------------------------

   10   -1179.6279476131      9.23e-07  Convergence criterion met
 Total energy in the final basis set =    -1179.6279476131
        RIMP2         total energy =     -1181.6228185040 a.u.

                    Orbital Energies (a.u.)
 --------------------------------------------------------------

 Alpha MOs
 -- Occupied --
-91.9823 -91.9759 -11.2827 -11.2761 -11.2613 -11.2612 -11.2594 -11.2537
-11.2409 -11.2380 -11.2311 -11.2209  -8.9830  -8.9760  -6.6637  -6.6629
 -6.6627  -6.6569  -6.6563  -6.6558  -1.1868  -1.1461  -1.0450  -1.0177
 -0.9995  -0.9526  -0.9110  -0.8916  -0.7951  -0.7573  -0.7320  -0.6948
 -0.6558  -0.6190  -0.5845  -0.5817  -0.5741  -0.5677  -0.5492  -0.5365
 -0.5251  -0.5219  -0.5119  -0.4912  -0.4669  -0.4625  -0.4476  -0.3551
 -0.3371  -0.3275  -0.2810

          Ground-State Mulliken Net Atomic Charges

     Atom                 Charge (a.u.)
  ----------------------------------------
      1 C                    -0.226241
      2 C                    -0.257072
      3 C                     0.033008
      4 H                     0.182892
      5 C                     0.004982
      6 S                    -0.004049
      7 C                    -0.302737
      8 H                     0.108446
      9 H                     0.112854
     10 H                     0.118913
     11 H                     0.200314
     12 C                    -0.116363
     13 C                    -0.131438
     14 C                    -0.011244
     15 H                     0.190116
     16 C                    -0.188361
     17 S                     0.035206
     18 C                    -0.267341
     19 H                     0.103508
     20 H                     0.108152
     21 H                     0.105989
     22 H                     0.200468
  ----------------------------------------
  Sum of atomic charges =     0.000000

                    Cartesian Multipole Moments
 -----------------------------------------------------------------
    Charge (ESU x 10^10)
                -0.0000
    Dipole Moment (Debye)
         X       3.6352      Y       1.0838      Z       0.7079
       Tot       3.8588
    Quadrupole Moments (Debye-Ang)
        XX     -81.2007     XY       4.2709     YY     -78.6424
        XZ      -2.1538     YZ       1.8505     ZZ     -84.2394

 Total job time:  596.38s(wall), 592.49s(cpu)
        *  Thank you very much for using Q-Chem.  Have a nice day.  *
