 Q-Chem 5.4, Q-Chem, Inc., Pleasanton, CA (2021)
 Q-Chem 5.4.0 for Intel X86 EM64T Linux

User input:
--------------------------------------------------------------
$molecule
0 1
C	-0.498788	-3.866725	0.593324
C	0.393517	-3.703963	-0.469446
C	0.685674	-2.357056	-0.817050
H	0.837128	-4.561092	-0.998381
C	-0.000000	-1.440664	-0.000000
S	-0.992768	-2.286957	1.183149
C	1.621254	-1.978743	-1.931676
H	2.035845	-2.878678	-2.425882
H	2.477868	-1.376015	-1.563980
H	1.110719	-1.375728	-2.711417
H	-0.884718	-4.783437	1.052896
C	0.000000	0.000000	0.000000
C	0.365003	0.782674	1.099446
C	0.949885	2.036912	0.776721
H	0.209135	0.448431	2.136088
C	1.043159	2.236886	-0.612546
S	0.398297	0.854094	-1.486809
C	1.409609	3.022738	1.814609
H	1.229726	2.636980	2.836676
H	0.877346	3.992870	1.726239
H	2.494910	3.238558	1.726228
H	1.444334	3.097160	-1.161575
$end

$rem
JOBTYPE		SP
EXCHANGE	HF
CORRELATION	pRIMP2
BASIS		cc-pvtz
METHOD		rimp2
AUX_BASIS	rimp2-cc-pvtz
SOLVENT_METHOD	PCM
PURECART	11111
SYMMETRY	false
MEM_TOTAL	110000
SCF_CONVERGENCE = 6
THRESH=10
$end

$solvent
dielectric 4.90
$end
--------------------------------------------------------------

             Standard Nuclear Orientation (Angstroms)
    I     Atom           X                Y                Z
 ----------------------------------------------------------------
    1      C      -0.4987880000    -3.8667250000     0.5933240000
    2      C       0.3935170000    -3.7039630000    -0.4694460000
    3      C       0.6856740000    -2.3570560000    -0.8170500000
    4      H       0.8371280000    -4.5610920000    -0.9983810000
    5      C       0.0000000000    -1.4406640000     0.0000000000
    6      S      -0.9927680000    -2.2869570000     1.1831490000
    7      C       1.6212540000    -1.9787430000    -1.9316760000
    8      H       2.0358450000    -2.8786780000    -2.4258820000
    9      H       2.4778680000    -1.3760150000    -1.5639800000
   10      H       1.1107190000    -1.3757280000    -2.7114170000
   11      H      -0.8847180000    -4.7834370000     1.0528960000
   12      C       0.0000000000     0.0000000000     0.0000000000
   13      C       0.3650030000     0.7826740000     1.0994460000
   14      C       0.9498850000     2.0369120000     0.7767210000
   15      H       0.2091350000     0.4484310000     2.1360880000
   16      C       1.0431590000     2.2368860000    -0.6125460000
   17      S       0.3982970000     0.8540940000    -1.4868090000
   18      C       1.4096090000     3.0227380000     1.8146090000
   19      H       1.2297260000     2.6369800000     2.8366760000
   20      H       0.8773460000     3.9928700000     1.7262390000
   21      H       2.4949100000     3.2385580000     1.7262280000
   22      H       1.4443340000     3.0971600000    -1.1615750000
 ----------------------------------------------------------------

   10   -1179.6702054517      5.30e-07  Convergence criterion met
 Total energy in the final basis set =    -1179.6702054517
        RIMP2         total energy =     -1181.6542254461 a.u.

                    Orbital Energies (a.u.)
 --------------------------------------------------------------

 Alpha MOs
 -- Occupied --
-91.9839 -91.9824 -11.2780 -11.2768 -11.2687 -11.2681 -11.2517 -11.2494
-11.2455 -11.2417 -11.2293 -11.2262  -8.9839  -8.9823  -6.6647  -6.6642
 -6.6636  -6.6632  -6.6627  -6.6620  -1.1812  -1.1490  -1.0422  -1.0220
 -0.9984  -0.9529  -0.9126  -0.8937  -0.7984  -0.7613  -0.7243  -0.6955
 -0.6604  -0.6162  -0.5828  -0.5787  -0.5764  -0.5696  -0.5513  -0.5329
 -0.5269  -0.5198  -0.5116  -0.4945  -0.4810  -0.4652  -0.4534  -0.3608
 -0.3410  -0.3362  -0.2750

          Ground-State Mulliken Net Atomic Charges

     Atom                 Charge (a.u.)
  ----------------------------------------
      1 C                    -0.217297
      2 C                    -0.252215
      3 C                     0.046441
      4 H                     0.184326
      5 C                    -0.030018
      6 S                     0.012571
      7 C                    -0.297143
      8 H                     0.108154
      9 H                     0.119024
     10 H                     0.111655
     11 H                     0.204193
     12 C                    -0.014538
     13 C                    -0.217384
     14 C                     0.013727
     15 H                     0.186752
     16 C                    -0.225680
     17 S                     0.019453
     18 C                    -0.269480
     19 H                     0.103027
     20 H                     0.108180
     21 H                     0.107453
     22 H                     0.198799
  ----------------------------------------
  Sum of atomic charges =     0.000000

                    Cartesian Multipole Moments
 -----------------------------------------------------------------
    Charge (ESU x 10^10)
                -0.0000
    Dipole Moment (Debye)
         X       1.9216      Y       0.5331      Z       0.2098
       Tot       2.0052
    Quadrupole Moments (Debye-Ang)
        XX     -88.0843     XY       2.9330     YY     -71.8523
        XZ      -2.8389     YZ       2.5123     ZZ     -82.6225

 Total job time:  557.77s(wall), 555.72s(cpu)
        *  Thank you very much for using Q-Chem.  Have a nice day.  *
