 Q-Chem 5.4, Q-Chem, Inc., Pleasanton, CA (2021)
 Q-Chem 5.4.0 for Intel X86 EM64T Linux

User input:
--------------------------------------------------------------
$molecule
0 1
C	0.775127	-3.866725	0.000713
C	-0.612565	-3.703963	0.000302
C	-1.066639	-2.357056	-0.000067
H	-1.302900	-4.561092	0.000470
C	0.000000	-1.440664	0.000000
S	1.544483	-2.286957	-0.000009
C	-2.521872	-1.978743	-0.000295
H	-3.166949	-2.878678	-0.000221
H	-2.790821	-1.376015	-0.892850
H	-2.791023	-1.375728	0.892005
H	1.375251	-4.783437	0.000945
C	0.000000	0.000000	0.000000
C	0.661577	0.555087	1.099446
C	1.721724	1.444630	0.776721
H	0.379056	0.318032	2.136088
C	1.890772	1.586449	-0.612546
S	0.721935	0.605744	-1.486809
C	2.555004	2.143805	1.814609
H	2.228946	1.870211	2.836676
H	2.482605	3.247987	1.726239
H	3.629830	1.880735	1.726228
H	2.617927	2.196579	-1.161575
$end

$rem
JOBTYPE		SP
EXCHANGE	HF
CORRELATION	pRIMP2
BASIS		cc-pvtz
METHOD		rimp2
AUX_BASIS	rimp2-cc-pvtz
SOLVENT_METHOD	PCM
PURECART	11111
SYMMETRY	false
MEM_TOTAL	110000
SCF_CONVERGENCE = 6
THRESH=10
$end

$solvent
dielectric 4.90
$end
--------------------------------------------------------------

             Standard Nuclear Orientation (Angstroms)
    I     Atom           X                Y                Z
 ----------------------------------------------------------------
    1      C       0.7751270000    -3.8667250000     0.0007130000
    2      C      -0.6125650000    -3.7039630000     0.0003020000
    3      C      -1.0666390000    -2.3570560000    -0.0000670000
    4      H      -1.3029000000    -4.5610920000     0.0004700000
    5      C       0.0000000000    -1.4406640000     0.0000000000
    6      S       1.5444830000    -2.2869570000    -0.0000090000
    7      C      -2.5218720000    -1.9787430000    -0.0002950000
    8      H      -3.1669490000    -2.8786780000    -0.0002210000
    9      H      -2.7908210000    -1.3760150000    -0.8928500000
   10      H      -2.7910230000    -1.3757280000     0.8920050000
   11      H       1.3752510000    -4.7834370000     0.0009450000
   12      C       0.0000000000     0.0000000000     0.0000000000
   13      C       0.6615770000     0.5550870000     1.0994460000
   14      C       1.7217240000     1.4446300000     0.7767210000
   15      H       0.3790560000     0.3180320000     2.1360880000
   16      C       1.8907720000     1.5864490000    -0.6125460000
   17      S       0.7219350000     0.6057440000    -1.4868090000
   18      C       2.5550040000     2.1438050000     1.8146090000
   19      H       2.2289460000     1.8702110000     2.8366760000
   20      H       2.4826050000     3.2479870000     1.7262390000
   21      H       3.6298300000     1.8807350000     1.7262280000
   22      H       2.6179270000     2.1965790000    -1.1615750000
 ----------------------------------------------------------------

   10   -1179.6373958035      6.64e-07  Convergence criterion met
 Total energy in the final basis set =    -1179.6373958035
        RIMP2         total energy =     -1181.6262146640 a.u.

                    Orbital Energies (a.u.)
 --------------------------------------------------------------

 Alpha MOs
 -- Occupied --
-91.9827 -91.9763 -11.2827 -11.2695 -11.2664 -11.2583 -11.2571 -11.2526
-11.2431 -11.2367 -11.2303 -11.2262  -8.9830  -8.9766  -6.6638  -6.6631
 -6.6627  -6.6575  -6.6569  -6.6563  -1.1857  -1.1464  -1.0435  -1.0185
 -0.9990  -0.9510  -0.9118  -0.8907  -0.7975  -0.7505  -0.7374  -0.6901
 -0.6576  -0.6199  -0.5847  -0.5796  -0.5692  -0.5686  -0.5492  -0.5337
 -0.5303  -0.5166  -0.5083  -0.4900  -0.4685  -0.4620  -0.4609  -0.3585
 -0.3292  -0.3140  -0.2985

          Ground-State Mulliken Net Atomic Charges

     Atom                 Charge (a.u.)
  ----------------------------------------
      1 C                    -0.217145
      2 C                    -0.252800
      3 C                     0.054101
      4 H                     0.180633
      5 C                    -0.063105
      6 S                     0.013883
      7 C                    -0.283414
      8 H                     0.106197
      9 H                     0.109186
     10 H                     0.107818
     11 H                     0.202634
     12 C                    -0.076819
     13 C                    -0.176896
     14 C                     0.012343
     15 H                     0.185457
     16 C                    -0.191945
     17 S                     0.037927
     18 C                    -0.266866
     19 H                     0.103183
     20 H                     0.107879
     21 H                     0.106977
     22 H                     0.200774
  ----------------------------------------
  Sum of atomic charges =     0.000000

                    Cartesian Multipole Moments
 -----------------------------------------------------------------
    Charge (ESU x 10^10)
                -0.0000
    Dipole Moment (Debye)
         X       0.7580      Y       0.7248      Z       1.5625
       Tot       1.8818
    Quadrupole Moments (Debye-Ang)
        XX     -79.3972     XY       8.3230     YY     -76.9564
        XZ       0.5357     YZ       0.6317     ZZ     -86.0162

 Total job time:  564.76s(wall), 562.05s(cpu)
        *  Thank you very much for using Q-Chem.  Have a nice day.  *
