 Q-Chem 5.4, Q-Chem, Inc., Pleasanton, CA (2021)
 Q-Chem 5.4.0 for Intel X86 EM64T Linux

User input:
--------------------------------------------------------------
$molecule
0 1
C	-0.728138	-3.866725	-0.265779
C	0.575726	-3.703963	0.209225
C	1.002290	-2.357056	0.364875
H	1.224486	-4.561092	0.445176
C	-0.000000	-1.440664	-0.000000
S	-1.451343	-2.286957	-0.528236
C	2.369683	-1.978743	0.862808
H	2.975883	-2.878678	1.083368
H	2.317142	-1.376015	1.793522
H	2.927787	-1.375728	0.116375
H	-1.291990	-4.783437	-0.471251
C	0.000000	0.000000	0.000000
C	0.555137	0.661535	1.099446
C	1.444710	1.721658	0.776721
H	0.318072	0.379023	2.136088
C	1.586563	1.890676	-0.612546
S	0.605781	0.721904	-1.486809
C	2.143920	2.554907	1.814609
H	1.870325	2.228851	2.836676
H	1.880882	3.629742	1.726239
H	3.248098	2.482476	1.726228
H	2.196723	2.617806	-1.161575
$end

$rem
JOBTYPE		SP
EXCHANGE	HF
CORRELATION	pRIMP2
BASIS		cc-pvtz
METHOD		rimp2
AUX_BASIS	rimp2-cc-pvtz
SOLVENT_METHOD	PCM
PURECART	11111
SYMMETRY	false
MEM_TOTAL	110000
SCF_CONVERGENCE = 6
THRESH=10
$end

$solvent
dielectric 4.90
$end
--------------------------------------------------------------

             Standard Nuclear Orientation (Angstroms)
    I     Atom           X                Y                Z
 ----------------------------------------------------------------
    1      C      -0.7281380000    -3.8667250000    -0.2657790000
    2      C       0.5757260000    -3.7039630000     0.2092250000
    3      C       1.0022900000    -2.3570560000     0.3648750000
    4      H       1.2244860000    -4.5610920000     0.4451760000
    5      C       0.0000000000    -1.4406640000     0.0000000000
    6      S      -1.4513430000    -2.2869570000    -0.5282360000
    7      C       2.3696830000    -1.9787430000     0.8628080000
    8      H       2.9758830000    -2.8786780000     1.0833680000
    9      H       2.3171420000    -1.3760150000     1.7935220000
   10      H       2.9277870000    -1.3757280000     0.1163750000
   11      H      -1.2919900000    -4.7834370000    -0.4712510000
   12      C       0.0000000000     0.0000000000     0.0000000000
   13      C       0.5551370000     0.6615350000     1.0994460000
   14      C       1.4447100000     1.7216580000     0.7767210000
   15      H       0.3180720000     0.3790230000     2.1360880000
   16      C       1.5865630000     1.8906760000    -0.6125460000
   17      S       0.6057810000     0.7219040000    -1.4868090000
   18      C       2.1439200000     2.5549070000     1.8146090000
   19      H       1.8703250000     2.2288510000     2.8366760000
   20      H       1.8808820000     3.6297420000     1.7262390000
   21      H       3.2480980000     2.4824760000     1.7262280000
   22      H       2.1967230000     2.6178060000    -1.1615750000
 ----------------------------------------------------------------

   10   -1179.6559216173      7.35e-07  Convergence criterion met
 Total energy in the final basis set =    -1179.6559216173
        RIMP2         total energy =     -1181.6432824880 a.u.

                    Orbital Energies (a.u.)
 --------------------------------------------------------------

 Alpha MOs
 -- Occupied --
-91.9841 -91.9782 -11.2763 -11.2725 -11.2675 -11.2655 -11.2525 -11.2514
-11.2488 -11.2397 -11.2304 -11.2276  -8.9840  -8.9782  -6.6648  -6.6642
 -6.6637  -6.6591  -6.6585  -6.6580  -1.1822  -1.1479  -1.0422  -1.0206
 -0.9975  -0.9536  -0.9128  -0.8913  -0.7972  -0.7510  -0.7357  -0.6963
 -0.6584  -0.6172  -0.5844  -0.5804  -0.5716  -0.5672  -0.5503  -0.5338
 -0.5269  -0.5227  -0.5110  -0.4895  -0.4746  -0.4647  -0.4561  -0.3453
 -0.3395  -0.3276  -0.2928

          Ground-State Mulliken Net Atomic Charges

     Atom                 Charge (a.u.)
  ----------------------------------------
      1 C                    -0.215534
      2 C                    -0.255225
      3 C                     0.061387
      4 H                     0.183379
      5 C                    -0.021580
      6 S                     0.011495
      7 C                    -0.294028
      8 H                     0.113907
      9 H                     0.109563
     10 H                     0.114825
     11 H                     0.202326
     12 C                    -0.071153
     13 C                    -0.246368
     14 C                     0.047806
     15 H                     0.193872
     16 C                    -0.220714
     17 S                     0.034582
     18 C                    -0.269117
     19 H                     0.103091
     20 H                     0.110181
     21 H                     0.106934
     22 H                     0.200372
  ----------------------------------------
  Sum of atomic charges =     0.000000

                    Cartesian Multipole Moments
 -----------------------------------------------------------------
    Charge (ESU x 10^10)
                -0.0000
    Dipole Moment (Debye)
         X       3.1109      Y       0.6522      Z       2.0864
       Tot       3.8021
    Quadrupole Moments (Debye-Ang)
        XX     -82.4274     XY       3.6169     YY     -74.4080
        XZ       2.5208     YZ      -0.0865     ZZ     -85.6773

 Total job time:  624.75s(wall), 620.51s(cpu)
        *  Thank you very much for using Q-Chem.  Have a nice day.  *
