 Q-Chem 5.4, Q-Chem, Inc., Pleasanton, CA (2021)
 Q-Chem 5.4.0 for Intel X86 EM64T Linux

User input:
--------------------------------------------------------------
$molecule
0 1
C	-0.728625	-3.866725	0.264439
C	0.575519	-3.703963	-0.209794
C	1.002336	-2.357056	-0.364749
H	1.224165	-4.561092	-0.446060
C	-0.000000	-1.440664	-0.000000
S	-1.451336	-2.286957	0.528253
C	2.369885	-1.978743	-0.862253
H	2.976034	-2.878678	-1.082953
H	2.927887	-1.376015	-0.115513
H	2.317620	-1.375728	-1.792797
H	-1.292636	-4.783437	0.469476
C	0.000000	0.000000	0.000000
C	0.555137	0.661535	1.099446
C	1.444710	1.721658	0.776721
H	0.318072	0.379023	2.136088
C	1.586563	1.890676	-0.612546
S	0.605781	0.721904	-1.486809
C	2.143920	2.554907	1.814609
H	1.870325	2.228851	2.836676
H	1.880882	3.629742	1.726239
H	3.248098	2.482476	1.726228
H	2.196723	2.617806	-1.161575
$end

$rem
JOBTYPE		SP
EXCHANGE	HF
CORRELATION	pRIMP2
BASIS		cc-pvtz
METHOD		rimp2
AUX_BASIS	rimp2-cc-pvtz
SOLVENT_METHOD	PCM
PURECART	11111
SYMMETRY	false
MEM_TOTAL	110000
SCF_CONVERGENCE = 6
THRESH=10
$end

$solvent
dielectric 4.90
$end
--------------------------------------------------------------

             Standard Nuclear Orientation (Angstroms)
    I     Atom           X                Y                Z
 ----------------------------------------------------------------
    1      C      -0.7286250000    -3.8667250000     0.2644390000
    2      C       0.5755190000    -3.7039630000    -0.2097940000
    3      C       1.0023360000    -2.3570560000    -0.3647490000
    4      H       1.2241650000    -4.5610920000    -0.4460600000
    5      C       0.0000000000    -1.4406640000     0.0000000000
    6      S      -1.4513360000    -2.2869570000     0.5282530000
    7      C       2.3698850000    -1.9787430000    -0.8622530000
    8      H       2.9760340000    -2.8786780000    -1.0829530000
    9      H       2.9278870000    -1.3760150000    -0.1155130000
   10      H       2.3176200000    -1.3757280000    -1.7927970000
   11      H      -1.2926360000    -4.7834370000     0.4694760000
   12      C       0.0000000000     0.0000000000     0.0000000000
   13      C       0.5551370000     0.6615350000     1.0994460000
   14      C       1.4447100000     1.7216580000     0.7767210000
   15      H       0.3180720000     0.3790230000     2.1360880000
   16      C       1.5865630000     1.8906760000    -0.6125460000
   17      S       0.6057810000     0.7219040000    -1.4868090000
   18      C       2.1439200000     2.5549070000     1.8146090000
   19      H       1.8703250000     2.2288510000     2.8366760000
   20      H       1.8808820000     3.6297420000     1.7262390000
   21      H       3.2480980000     2.4824760000     1.7262280000
   22      H       2.1967230000     2.6178060000    -1.1615750000
 ----------------------------------------------------------------

   10   -1179.6526999035      7.25e-07  Convergence criterion met
 Total energy in the final basis set =    -1179.6526999035
        RIMP2         total energy =     -1181.6411705765 a.u.

                    Orbital Energies (a.u.)
 --------------------------------------------------------------

 Alpha MOs
 -- Occupied --
-91.9840 -91.9786 -11.2763 -11.2742 -11.2671 -11.2653 -11.2538 -11.2525
-11.2462 -11.2394 -11.2304 -11.2245  -8.9840  -8.9785  -6.6648  -6.6642
 -6.6637  -6.6595  -6.6589  -6.6583  -1.1827  -1.1477  -1.0429  -1.0185
 -0.9989  -0.9533  -0.9119  -0.8914  -0.7967  -0.7552  -0.7320  -0.6950
 -0.6580  -0.6177  -0.5817  -0.5808  -0.5735  -0.5690  -0.5501  -0.5332
 -0.5267  -0.5212  -0.5120  -0.4907  -0.4724  -0.4654  -0.4533  -0.3507
 -0.3389  -0.3240  -0.2909

          Ground-State Mulliken Net Atomic Charges

     Atom                 Charge (a.u.)
  ----------------------------------------
      1 C                    -0.220127
      2 C                    -0.254091
      3 C                     0.051891
      4 H                     0.183310
      5 C                    -0.012825
      6 S                     0.008830
      7 C                    -0.297189
      8 H                     0.111199
      9 H                     0.111888
     10 H                     0.115533
     11 H                     0.201598
     12 C                    -0.086121
     13 C                    -0.181786
     14 C                     0.009251
     15 H                     0.187304
     16 C                    -0.207013
     17 S                     0.028884
     18 C                    -0.268082
     19 H                     0.103257
     20 H                     0.108160
     21 H                     0.106643
     22 H                     0.199485
  ----------------------------------------
  Sum of atomic charges =     0.000000

                    Cartesian Multipole Moments
 -----------------------------------------------------------------
    Charge (ESU x 10^10)
                -0.0000
    Dipole Moment (Debye)
         X       3.1118      Y       0.8417      Z       0.9714
       Tot       3.3668
    Quadrupole Moments (Debye-Ang)
        XX     -82.5940     XY       3.7511     YY     -75.2036
        XZ      -1.5341     YZ       1.5826     ZZ     -85.4421

 Total job time:  596.23s(wall), 592.83s(cpu)
        *  Thank you very much for using Q-Chem.  Have a nice day.  *
