 Q-Chem 5.4, Q-Chem, Inc., Pleasanton, CA (2021)
 Q-Chem 5.4.0 for Intel X86 EM64T Linux

User input:
--------------------------------------------------------------
$molecule
0 1
C	0.775127	-3.866725	0.000713
C	-0.612565	-3.703963	0.000302
C	-1.066639	-2.357056	-0.000067
H	-1.302900	-4.561092	0.000470
C	0.000000	-1.440664	0.000000
S	1.544483	-2.286957	-0.000009
C	-2.521872	-1.978743	-0.000295
H	-3.166949	-2.878678	-0.000221
H	-2.790821	-1.376015	-0.892850
H	-2.791023	-1.375728	0.892005
H	1.375251	-4.783437	0.000945
C	0.000000	0.000000	0.000000
C	0.431829	0.747884	1.099446
C	1.123799	1.946373	0.776721
H	0.247423	0.428497	2.136088
C	1.234147	2.137457	-0.612546
S	0.471221	0.816130	-1.486809
C	1.667694	2.888380	1.814609
H	1.454874	2.519768	2.836676
H	1.222009	3.901210	1.726239
H	2.767675	3.008788	1.726228
H	1.708773	2.959493	-1.161575
$end

$rem
JOBTYPE		SP
EXCHANGE	HF
CORRELATION	pRIMP2
BASIS		cc-pvtz
METHOD		rimp2
AUX_BASIS	rimp2-cc-pvtz
SOLVENT_METHOD	PCM
PURECART	11111
SYMMETRY	false
MEM_TOTAL	110000
SCF_CONVERGENCE = 6
THRESH=10
$end

$solvent
dielectric 4.90
$end
--------------------------------------------------------------

             Standard Nuclear Orientation (Angstroms)
    I     Atom           X                Y                Z
 ----------------------------------------------------------------
    1      C       0.7751270000    -3.8667250000     0.0007130000
    2      C      -0.6125650000    -3.7039630000     0.0003020000
    3      C      -1.0666390000    -2.3570560000    -0.0000670000
    4      H      -1.3029000000    -4.5610920000     0.0004700000
    5      C       0.0000000000    -1.4406640000     0.0000000000
    6      S       1.5444830000    -2.2869570000    -0.0000090000
    7      C      -2.5218720000    -1.9787430000    -0.0002950000
    8      H      -3.1669490000    -2.8786780000    -0.0002210000
    9      H      -2.7908210000    -1.3760150000    -0.8928500000
   10      H      -2.7910230000    -1.3757280000     0.8920050000
   11      H       1.3752510000    -4.7834370000     0.0009450000
   12      C       0.0000000000     0.0000000000     0.0000000000
   13      C       0.4318290000     0.7478840000     1.0994460000
   14      C       1.1237990000     1.9463730000     0.7767210000
   15      H       0.2474230000     0.4284970000     2.1360880000
   16      C       1.2341470000     2.1374570000    -0.6125460000
   17      S       0.4712210000     0.8161300000    -1.4868090000
   18      C       1.6676940000     2.8883800000     1.8146090000
   19      H       1.4548740000     2.5197680000     2.8366760000
   20      H       1.2220090000     3.9012100000     1.7262390000
   21      H       2.7676750000     3.0087880000     1.7262280000
   22      H       1.7087730000     2.9594930000    -1.1615750000
 ----------------------------------------------------------------

   10   -1179.6688607859      5.15e-07  Convergence criterion met
 Total energy in the final basis set =    -1179.6688607859
        RIMP2         total energy =     -1181.6504232719 a.u.

                    Orbital Energies (a.u.)
 --------------------------------------------------------------

 Alpha MOs
 -- Occupied --
-91.9841 -91.9819 -11.2716 -11.2706 -11.2706 -11.2704 -11.2513 -11.2497
-11.2472 -11.2397 -11.2293 -11.2284  -8.9839  -8.9817  -6.6647  -6.6641
 -6.6636  -6.6626  -6.6620  -6.6614  -1.1800  -1.1485  -1.0408  -1.0215
 -0.9972  -0.9528  -0.9126  -0.8917  -0.7993  -0.7524  -0.7324  -0.6927
 -0.6606  -0.6170  -0.5828  -0.5792  -0.5703  -0.5690  -0.5510  -0.5322
 -0.5295  -0.5185  -0.5084  -0.4912  -0.4792  -0.4645  -0.4626  -0.3513
 -0.3337  -0.3120  -0.3081

          Ground-State Mulliken Net Atomic Charges

     Atom                 Charge (a.u.)
  ----------------------------------------
      1 C                    -0.206931
      2 C                    -0.253951
      3 C                     0.061889
      4 H                     0.182133
      5 C                    -0.067146
      6 S                     0.025831
      7 C                    -0.284163
      8 H                     0.106736
      9 H                     0.110432
     10 H                     0.109223
     11 H                     0.203887
     12 C                    -0.016395
     13 C                    -0.236511
     14 C                     0.033055
     15 H                     0.184031
     16 C                    -0.228492
     17 S                     0.028436
     18 C                    -0.268896
     19 H                     0.102833
     20 H                     0.107665
     21 H                     0.107759
     22 H                     0.198574
  ----------------------------------------
  Sum of atomic charges =     0.000000

                    Cartesian Multipole Moments
 -----------------------------------------------------------------
    Charge (ESU x 10^10)
                -0.0000
    Dipole Moment (Debye)
         X      -0.3524      Y       0.4485      Z       1.4954
       Tot       1.6005
    Quadrupole Moments (Debye-Ang)
        XX     -83.4246     XY       7.0471     YY     -71.9832
        XZ       0.4851     YZ       0.8376     ZZ     -86.5086

 Total job time:  555.18s(wall), 546.92s(cpu)
        *  Thank you very much for using Q-Chem.  Have a nice day.  *
