 Q-Chem 5.4, Q-Chem, Inc., Pleasanton, CA (2021)
 Q-Chem 5.4.0 for Intel X86 EM64T Linux

User input:
--------------------------------------------------------------
$molecule
0 1
C	0.728138	-3.866725	0.265779
C	-0.575726	-3.703963	-0.209225
C	-1.002290	-2.357056	-0.364875
H	-1.224486	-4.561092	-0.445176
C	0.000000	-1.440664	0.000000
S	1.451343	-2.286957	0.528236
C	-2.369683	-1.978743	-0.862808
H	-2.975883	-2.878678	-1.083368
H	-2.317142	-1.376015	-1.793522
H	-2.927787	-1.375728	-0.116375
H	1.291990	-4.783437	0.471251
C	0.000000	0.000000	0.000000
C	0.661577	0.555087	1.099446
C	1.721724	1.444630	0.776721
H	0.379056	0.318032	2.136088
C	1.890772	1.586449	-0.612546
S	0.721935	0.605744	-1.486809
C	2.555004	2.143805	1.814609
H	2.228946	1.870211	2.836676
H	2.482605	3.247987	1.726239
H	3.629830	1.880735	1.726228
H	2.617927	2.196579	-1.161575
$end

$rem
JOBTYPE		SP
EXCHANGE	HF
CORRELATION	pRIMP2
BASIS		cc-pvtz
METHOD		rimp2
AUX_BASIS	rimp2-cc-pvtz
SOLVENT_METHOD	PCM
PURECART	11111
SYMMETRY	false
MEM_TOTAL	110000
SCF_CONVERGENCE = 6
THRESH=10
$end

$solvent
dielectric 4.90
$end
--------------------------------------------------------------

             Standard Nuclear Orientation (Angstroms)
    I     Atom           X                Y                Z
 ----------------------------------------------------------------
    1      C       0.7281380000    -3.8667250000     0.2657790000
    2      C      -0.5757260000    -3.7039630000    -0.2092250000
    3      C      -1.0022900000    -2.3570560000    -0.3648750000
    4      H      -1.2244860000    -4.5610920000    -0.4451760000
    5      C       0.0000000000    -1.4406640000     0.0000000000
    6      S       1.4513430000    -2.2869570000     0.5282360000
    7      C      -2.3696830000    -1.9787430000    -0.8628080000
    8      H      -2.9758830000    -2.8786780000    -1.0833680000
    9      H      -2.3171420000    -1.3760150000    -1.7935220000
   10      H      -2.9277870000    -1.3757280000    -0.1163750000
   11      H       1.2919900000    -4.7834370000     0.4712510000
   12      C       0.0000000000     0.0000000000     0.0000000000
   13      C       0.6615770000     0.5550870000     1.0994460000
   14      C       1.7217240000     1.4446300000     0.7767210000
   15      H       0.3790560000     0.3180320000     2.1360880000
   16      C       1.8907720000     1.5864490000    -0.6125460000
   17      S       0.7219350000     0.6057440000    -1.4868090000
   18      C       2.5550040000     2.1438050000     1.8146090000
   19      H       2.2289460000     1.8702110000     2.8366760000
   20      H       2.4826050000     3.2479870000     1.7262390000
   21      H       3.6298300000     1.8807350000     1.7262280000
   22      H       2.6179270000     2.1965790000    -1.1615750000
 ----------------------------------------------------------------

   10   -1179.6395734015      6.31e-07  Convergence criterion met
 Total energy in the final basis set =    -1179.6395734015
        RIMP2         total energy =     -1181.6287829163 a.u.

                    Orbital Energies (a.u.)
 --------------------------------------------------------------

 Alpha MOs
 -- Occupied --
-91.9834 -91.9784 -11.2828 -11.2702 -11.2656 -11.2591 -11.2565 -11.2533
-11.2424 -11.2376 -11.2305 -11.2263  -8.9836  -8.9784  -6.6644  -6.6636
 -6.6632  -6.6593  -6.6587  -6.6581  -1.1861  -1.1466  -1.0437  -1.0188
 -1.0003  -0.9495  -0.9134  -0.8905  -0.7972  -0.7553  -0.7337  -0.6892
 -0.6579  -0.6200  -0.5848  -0.5800  -0.5703  -0.5689  -0.5494  -0.5344
 -0.5291  -0.5162  -0.5080  -0.4913  -0.4681  -0.4649  -0.4603  -0.3531
 -0.3345  -0.3249  -0.2895

          Ground-State Mulliken Net Atomic Charges

     Atom                 Charge (a.u.)
  ----------------------------------------
      1 C                    -0.224169
      2 C                    -0.247856
      3 C                     0.040951
      4 H                     0.181175
      5 C                    -0.036475
      6 S                     0.014771
      7 C                    -0.286377
      8 H                     0.106886
      9 H                     0.107640
     10 H                     0.109443
     11 H                     0.202466
     12 C                    -0.068602
     13 C                    -0.224219
     14 C                     0.029441
     15 H                     0.192245
     16 C                    -0.192970
     17 S                     0.040824
     18 C                    -0.265926
     19 H                     0.103508
     20 H                     0.108448
     21 H                     0.107416
     22 H                     0.201379
  ----------------------------------------
  Sum of atomic charges =     0.000000

                    Cartesian Multipole Moments
 -----------------------------------------------------------------
    Charge (ESU x 10^10)
                -0.0000
    Dipole Moment (Debye)
         X       0.8424      Y       0.7271      Z       1.0434
       Tot       1.5255
    Quadrupole Moments (Debye-Ang)
        XX     -80.0618     XY       8.2262     YY     -76.8484
        XZ       2.5186     YZ       1.4132     ZZ     -85.3744

 Total job time:  564.45s(wall), 560.98s(cpu)
        *  Thank you very much for using Q-Chem.  Have a nice day.  *
