 Q-Chem 5.4, Q-Chem, Inc., Pleasanton, CA (2021)
 Q-Chem 5.4.0 for Intel X86 EM64T Linux

User input:
--------------------------------------------------------------
$molecule
0 1
C	-0.671636	-3.866725	0.386946
C	0.530345	-3.703963	-0.306544
C	0.923770	-2.357056	-0.533261
H	1.128109	-4.561092	-0.651857
C	0.000000	-1.440664	0.000000
S	-1.337557	-2.286957	0.772250
C	2.184153	-1.978743	-1.260680
H	2.742769	-2.878678	-1.583283
H	2.863347	-1.376015	-0.622180
H	1.971094	-1.375728	-2.168011
H	-1.191474	-4.783437	0.686807
C	0.000000	0.000000	0.000000
C	0.223548	0.834165	1.099446
C	0.581748	2.170912	0.776721
H	0.128089	0.477934	2.136088
C	0.638880	2.384045	-0.612546
S	0.243934	0.910282	-1.486809
C	0.863301	3.221592	1.814609
H	0.753137	2.810458	2.836676
H	0.170663	4.084559	1.726239
H	1.894637	3.622593	1.726228
H	0.884575	3.300913	-1.161575
$end

$rem
JOBTYPE		SP
EXCHANGE	HF
CORRELATION	pRIMP2
BASIS		cc-pvtz
METHOD		rimp2
AUX_BASIS	rimp2-cc-pvtz
SOLVENT_METHOD	PCM
PURECART	11111
SYMMETRY	false
MEM_TOTAL	110000
SCF_CONVERGENCE = 6
THRESH=10
$end

$solvent
dielectric 4.90
$end
--------------------------------------------------------------

             Standard Nuclear Orientation (Angstroms)
    I     Atom           X                Y                Z
 ----------------------------------------------------------------
    1      C      -0.6716360000    -3.8667250000     0.3869460000
    2      C       0.5303450000    -3.7039630000    -0.3065440000
    3      C       0.9237700000    -2.3570560000    -0.5332610000
    4      H       1.1281090000    -4.5610920000    -0.6518570000
    5      C       0.0000000000    -1.4406640000     0.0000000000
    6      S      -1.3375570000    -2.2869570000     0.7722500000
    7      C       2.1841530000    -1.9787430000    -1.2606800000
    8      H       2.7427690000    -2.8786780000    -1.5832830000
    9      H       2.8633470000    -1.3760150000    -0.6221800000
   10      H       1.9710940000    -1.3757280000    -2.1680110000
   11      H      -1.1914740000    -4.7834370000     0.6868070000
   12      C       0.0000000000     0.0000000000     0.0000000000
   13      C       0.2235480000     0.8341650000     1.0994460000
   14      C       0.5817480000     2.1709120000     0.7767210000
   15      H       0.1280890000     0.4779340000     2.1360880000
   16      C       0.6388800000     2.3840450000    -0.6125460000
   17      S       0.2439340000     0.9102820000    -1.4868090000
   18      C       0.8633010000     3.2215920000     1.8146090000
   19      H       0.7531370000     2.8104580000     2.8366760000
   20      H       0.1706630000     4.0845590000     1.7262390000
   21      H       1.8946370000     3.6225930000     1.7262280000
   22      H       0.8845750000     3.3009130000    -1.1615750000
 ----------------------------------------------------------------

   10   -1179.6810929961      5.02e-07  Convergence criterion met
 Total energy in the final basis set =    -1179.6810929961
        RIMP2         total energy =     -1181.6612297483 a.u.

                    Orbital Energies (a.u.)
 --------------------------------------------------------------

 Alpha MOs
 -- Occupied --
-91.9851 -91.9839 -11.2787 -11.2747 -11.2708 -11.2662 -11.2523 -11.2514
-11.2439 -11.2420 -11.2292 -11.2278  -8.9847  -8.9836  -6.6656  -6.6651
 -6.6645  -6.6645  -6.6640  -6.6634  -1.1794  -1.1495  -1.0409  -1.0221
 -0.9982  -0.9535  -0.9135  -0.8925  -0.7997  -0.7581  -0.7269  -0.6951
 -0.6616  -0.6163  -0.5822  -0.5782  -0.5741  -0.5697  -0.5517  -0.5322
 -0.5278  -0.5196  -0.5100  -0.4932  -0.4848  -0.4659  -0.4583  -0.3490
 -0.3421  -0.3324  -0.2879

          Ground-State Mulliken Net Atomic Charges

     Atom                 Charge (a.u.)
  ----------------------------------------
      1 C                    -0.217119
      2 C                    -0.249659
      3 C                     0.046447
      4 H                     0.184199
      5 C                    -0.027652
      6 S                     0.023594
      7 C                    -0.287539
      8 H                     0.108984
      9 H                     0.113692
     10 H                     0.112439
     11 H                     0.204211
     12 C                    -0.026103
     13 C                    -0.230408
     14 C                     0.019795
     15 H                     0.187928
     16 C                    -0.233235
     17 S                     0.023962
     18 C                    -0.270523
     19 H                     0.102881
     20 H                     0.108257
     21 H                     0.107825
     22 H                     0.198022
  ----------------------------------------
  Sum of atomic charges =     0.000000

                    Cartesian Multipole Moments
 -----------------------------------------------------------------
    Charge (ESU x 10^10)
                -0.0000
    Dipole Moment (Debye)
         X       1.8380      Y       0.3822      Z       0.6634
       Tot       1.9911
    Quadrupole Moments (Debye-Ang)
        XX     -87.1809     XY       0.9350     YY     -69.9025
        XZ      -2.6115     YZ       2.0617     ZZ     -84.9513

 Total job time:  556.57s(wall), 551.74s(cpu)
        *  Thank you very much for using Q-Chem.  Have a nice day.  *
