 Q-Chem 5.4, Q-Chem, Inc., Pleasanton, CA (2021)
 Q-Chem 5.4.0 for Intel X86 EM64T Linux

User input:
--------------------------------------------------------------
$molecule
0 1
C	0.763228	-3.866725	0.135301
C	-0.603311	-3.703963	-0.106073
C	-1.050423	-2.357056	-0.185286
H	-1.283188	-4.561092	-0.225783
C	-0.000000	-1.440664	-0.000000
S	1.521021	-2.286957	0.268187
C	-2.483507	-1.978743	-0.438209
H	-3.118798	-2.878678	-0.550153
H	-2.593381	-1.376015	-1.363906
H	-2.903516	-1.375728	0.393798
H	1.354194	-4.783437	0.239740
C	0.000000	0.000000	0.000000
C	0.555137	0.661535	1.099446
C	1.444710	1.721658	0.776721
H	0.318072	0.379023	2.136088
C	1.586563	1.890676	-0.612546
S	0.605781	0.721904	-1.486809
C	2.143920	2.554907	1.814609
H	1.870325	2.228851	2.836676
H	1.880882	3.629742	1.726239
H	3.248098	2.482476	1.726228
H	2.196723	2.617806	-1.161575
$end

$rem
JOBTYPE		SP
EXCHANGE	HF
CORRELATION	pRIMP2
BASIS		cc-pvtz
METHOD		rimp2
AUX_BASIS	rimp2-cc-pvtz
SOLVENT_METHOD	PCM
PURECART	11111
SYMMETRY	false
MEM_TOTAL	110000
SCF_CONVERGENCE = 6
THRESH=10
$end

$solvent
dielectric 4.90
$end
--------------------------------------------------------------

             Standard Nuclear Orientation (Angstroms)
    I     Atom           X                Y                Z
 ----------------------------------------------------------------
    1      C       0.7632280000    -3.8667250000     0.1353010000
    2      C      -0.6033110000    -3.7039630000    -0.1060730000
    3      C      -1.0504230000    -2.3570560000    -0.1852860000
    4      H      -1.2831880000    -4.5610920000    -0.2257830000
    5      C       0.0000000000    -1.4406640000     0.0000000000
    6      S       1.5210210000    -2.2869570000     0.2681870000
    7      C      -2.4835070000    -1.9787430000    -0.4382090000
    8      H      -3.1187980000    -2.8786780000    -0.5501530000
    9      H      -2.5933810000    -1.3760150000    -1.3639060000
   10      H      -2.9035160000    -1.3757280000     0.3937980000
   11      H       1.3541940000    -4.7834370000     0.2397400000
   12      C       0.0000000000     0.0000000000     0.0000000000
   13      C       0.5551370000     0.6615350000     1.0994460000
   14      C       1.4447100000     1.7216580000     0.7767210000
   15      H       0.3180720000     0.3790230000     2.1360880000
   16      C       1.5865630000     1.8906760000    -0.6125460000
   17      S       0.6057810000     0.7219040000    -1.4868090000
   18      C       2.1439200000     2.5549070000     1.8146090000
   19      H       1.8703250000     2.2288510000     2.8366760000
   20      H       1.8808820000     3.6297420000     1.7262390000
   21      H       3.2480980000     2.4824760000     1.7262280000
   22      H       2.1967230000     2.6178060000    -1.1615750000
 ----------------------------------------------------------------

   10   -1179.6562179492      5.54e-07  Convergence criterion met
 Total energy in the final basis set =    -1179.6562179492
        RIMP2         total energy =     -1181.6410295192 a.u.

                    Orbital Energies (a.u.)
 --------------------------------------------------------------

 Alpha MOs
 -- Occupied --
-91.9834 -91.9802 -11.2757 -11.2701 -11.2686 -11.2656 -11.2522 -11.2509
-11.2467 -11.2386 -11.2297 -11.2275  -8.9834  -8.9801  -6.6642  -6.6635
 -6.6630  -6.6609  -6.6604  -6.6597  -1.1822  -1.1477  -1.0418  -1.0203
 -0.9983  -0.9513  -0.9127  -0.8912  -0.7981  -0.7534  -0.7329  -0.6911
 -0.6594  -0.6182  -0.5832  -0.5797  -0.5703  -0.5690  -0.5502  -0.5333
 -0.5289  -0.5175  -0.5086  -0.4911  -0.4735  -0.4647  -0.4618  -0.3525
 -0.3327  -0.3186  -0.2995

          Ground-State Mulliken Net Atomic Charges

     Atom                 Charge (a.u.)
  ----------------------------------------
      1 C                    -0.211622
      2 C                    -0.253568
      3 C                     0.056520
      4 H                     0.181569
      5 C                    -0.058505
      6 S                     0.020914
      7 C                    -0.285013
      8 H                     0.106882
      9 H                     0.109380
     10 H                     0.109636
     11 H                     0.203417
     12 C                    -0.029176
     13 C                    -0.245792
     14 C                     0.041127
     15 H                     0.186273
     16 C                    -0.215982
     17 S                     0.033114
     18 C                    -0.267093
     19 H                     0.102990
     20 H                     0.107717
     21 H                     0.107544
     22 H                     0.199669
  ----------------------------------------
  Sum of atomic charges =     0.000000

                    Cartesian Multipole Moments
 -----------------------------------------------------------------
    Charge (ESU x 10^10)
                -0.0000
    Dipole Moment (Debye)
         X       0.1680      Y       0.5647      Z       1.2635
       Tot       1.3941
    Quadrupole Moments (Debye-Ang)
        XX     -81.7300     XY       7.9397     YY     -74.1724
        XZ       1.6297     YZ       1.1240     ZZ     -86.1512

 Total job time:  562.60s(wall), 558.91s(cpu)
        *  Thank you very much for using Q-Chem.  Have a nice day.  *
