 Q-Chem 5.4, Q-Chem, Inc., Pleasanton, CA (2021)
 Q-Chem 5.4.0 for Intel X86 EM64T Linux

User input:
--------------------------------------------------------------
$molecule
0 1
C	-0.671636	-3.866725	0.386946
C	0.530345	-3.703963	-0.306544
C	0.923770	-2.357056	-0.533261
H	1.128109	-4.561092	-0.651857
C	-0.000000	-1.440664	-0.000000
S	-1.337557	-2.286957	0.772250
C	2.184153	-1.978743	-1.260680
H	2.742769	-2.878678	-1.583283
H	2.863347	-1.376015	-0.622180
H	1.971094	-1.375728	-2.168011
H	-1.191474	-4.783437	0.686807
C	0.000000	0.000000	0.000000
C	0.555137	0.661535	1.099446
C	1.444710	1.721658	0.776721
H	0.318072	0.379023	2.136088
C	1.586563	1.890676	-0.612546
S	0.605781	0.721904	-1.486809
C	2.143920	2.554907	1.814609
H	1.870325	2.228851	2.836676
H	1.880882	3.629742	1.726239
H	3.248098	2.482476	1.726228
H	2.196723	2.617806	-1.161575
$end

$rem
JOBTYPE		SP
EXCHANGE	HF
CORRELATION	pRIMP2
BASIS		cc-pvtz
METHOD		rimp2
AUX_BASIS	rimp2-cc-pvtz
SOLVENT_METHOD	PCM
PURECART	11111
SYMMETRY	false
MEM_TOTAL	110000
SCF_CONVERGENCE = 6
THRESH=10
$end

$solvent
dielectric 4.90
$end
--------------------------------------------------------------

             Standard Nuclear Orientation (Angstroms)
    I     Atom           X                Y                Z
 ----------------------------------------------------------------
    1      C      -0.6716360000    -3.8667250000     0.3869460000
    2      C       0.5303450000    -3.7039630000    -0.3065440000
    3      C       0.9237700000    -2.3570560000    -0.5332610000
    4      H       1.1281090000    -4.5610920000    -0.6518570000
    5      C       0.0000000000    -1.4406640000     0.0000000000
    6      S      -1.3375570000    -2.2869570000     0.7722500000
    7      C       2.1841530000    -1.9787430000    -1.2606800000
    8      H       2.7427690000    -2.8786780000    -1.5832830000
    9      H       2.8633470000    -1.3760150000    -0.6221800000
   10      H       1.9710940000    -1.3757280000    -2.1680110000
   11      H      -1.1914740000    -4.7834370000     0.6868070000
   12      C       0.0000000000     0.0000000000     0.0000000000
   13      C       0.5551370000     0.6615350000     1.0994460000
   14      C       1.4447100000     1.7216580000     0.7767210000
   15      H       0.3180720000     0.3790230000     2.1360880000
   16      C       1.5865630000     1.8906760000    -0.6125460000
   17      S       0.6057810000     0.7219040000    -1.4868090000
   18      C       2.1439200000     2.5549070000     1.8146090000
   19      H       1.8703250000     2.2288510000     2.8366760000
   20      H       1.8808820000     3.6297420000     1.7262390000
   21      H       3.2480980000     2.4824760000     1.7262280000
   22      H       2.1967230000     2.6178060000    -1.1615750000
 ----------------------------------------------------------------

   10   -1179.6500869554      7.21e-07  Convergence criterion met
 Total energy in the final basis set =    -1179.6500869554
        RIMP2         total energy =     -1181.6392887110 a.u.

                    Orbital Energies (a.u.)
 --------------------------------------------------------------

 Alpha MOs
 -- Occupied --
-91.9835 -91.9787 -11.2763 -11.2754 -11.2681 -11.2647 -11.2537 -11.2525
-11.2451 -11.2395 -11.2304 -11.2234  -8.9836  -8.9787  -6.6645  -6.6638
 -6.6634  -6.6596  -6.6590  -6.6584  -1.1831  -1.1476  -1.0432  -1.0186
 -0.9989  -0.9531  -0.9115  -0.8920  -0.7965  -0.7572  -0.7301  -0.6951
 -0.6577  -0.6176  -0.5822  -0.5807  -0.5740  -0.5688  -0.5500  -0.5338
 -0.5266  -0.5209  -0.5119  -0.4918  -0.4719  -0.4644  -0.4526  -0.3536
 -0.3387  -0.3288  -0.2837

          Ground-State Mulliken Net Atomic Charges

     Atom                 Charge (a.u.)
  ----------------------------------------
      1 C                    -0.221360
      2 C                    -0.254557
      3 C                     0.044582
      4 H                     0.183397
      5 C                    -0.009595
      6 S                     0.005783
      7 C                    -0.295474
      8 H                     0.108249
      9 H                     0.113669
     10 H                     0.116371
     11 H                     0.201767
     12 C                    -0.083171
     13 C                    -0.172984
     14 C                     0.004123
     15 H                     0.188550
     16 C                    -0.206427
     17 S                     0.027788
     18 C                    -0.267878
     19 H                     0.103217
     20 H                     0.107892
     21 H                     0.106644
     22 H                     0.199413
  ----------------------------------------
  Sum of atomic charges =     0.000000

                    Cartesian Multipole Moments
 -----------------------------------------------------------------
    Charge (ESU x 10^10)
                -0.0000
    Dipole Moment (Debye)
         X       3.0127      Y       0.8981      Z       0.6912
       Tot       3.2188
    Quadrupole Moments (Debye-Ang)
        XX     -83.4071     XY       3.9971     YY     -75.5132
        XZ      -2.2316     YZ       1.8958     ZZ     -84.5365

 Total job time:  592.58s(wall), 588.56s(cpu)
        *  Thank you very much for using Q-Chem.  Have a nice day.  *
