 Q-Chem 5.4, Q-Chem, Inc., Pleasanton, CA (2021)
 Q-Chem 5.4.0 for Intel X86 EM64T Linux

User input:
--------------------------------------------------------------
$molecule
0 1
C	0.670748	-3.808105	0.775127
C	0.642889	-3.647744	-0.612565
C	0.409365	-2.321236	-1.066639
H	0.791563	-4.491881	-1.302900
C	0.250169	-1.418777	0.000000
S	0.397135	-2.252211	1.544483
C	0.343896	-1.948630	-2.521872
H	0.500095	-2.834906	-3.166949
H	1.118228	-1.200068	-2.790821
H	-0.639561	-1.509723	-2.791023
H	0.829705	-4.710930	1.375251
C	0.000000	0.000000	0.000000
C	0.149995	0.850475	1.099446
C	0.390327	2.213354	0.776721
H	0.085947	0.487279	2.136088
C	0.428665	2.430655	-0.612546
S	0.163670	0.928078	-1.486809
C	0.579235	3.284574	1.814609
H	0.505323	2.865404	2.836676
H	-0.185980	4.083890	1.726239
H	1.571698	3.773937	1.726228
H	0.593515	3.365448	-1.161575
$end

$rem
JOBTYPE		SP
EXCHANGE	HF
CORRELATION	pRIMP2
BASIS		cc-pvtz
METHOD		rimp2
AUX_BASIS	rimp2-cc-pvtz
SOLVENT_METHOD	PCM
PURECART	11111
SYMMETRY	false
MEM_TOTAL	110000
SCF_CONVERGENCE = 6
THRESH=10
$end

$solvent
dielectric 4.90
$end
--------------------------------------------------------------

             Standard Nuclear Orientation (Angstroms)
    I     Atom           X                Y                Z
 ----------------------------------------------------------------
    1      C       0.6707480000    -3.8081050000     0.7751270000
    2      C       0.6428890000    -3.6477440000    -0.6125650000
    3      C       0.4093650000    -2.3212360000    -1.0666390000
    4      H       0.7915630000    -4.4918810000    -1.3029000000
    5      C       0.2501690000    -1.4187770000     0.0000000000
    6      S       0.3971350000    -2.2522110000     1.5444830000
    7      C       0.3438960000    -1.9486300000    -2.5218720000
    8      H       0.5000950000    -2.8349060000    -3.1669490000
    9      H       1.1182280000    -1.2000680000    -2.7908210000
   10      H      -0.6395610000    -1.5097230000    -2.7910230000
   11      H       0.8297050000    -4.7109300000     1.3752510000
   12      C       0.0000000000     0.0000000000     0.0000000000
   13      C       0.1499950000     0.8504750000     1.0994460000
   14      C       0.3903270000     2.2133540000     0.7767210000
   15      H       0.0859470000     0.4872790000     2.1360880000
   16      C       0.4286650000     2.4306550000    -0.6125460000
   17      S       0.1636700000     0.9280780000    -1.4868090000
   18      C       0.5792350000     3.2845740000     1.8146090000
   19      H       0.5053230000     2.8654040000     2.8366760000
   20      H      -0.1859800000     4.0838900000     1.7262390000
   21      H       1.5716980000     3.7739370000     1.7262280000
   22      H       0.5935150000     3.3654480000    -1.1615750000
 ----------------------------------------------------------------

   10   -1179.6776932053      5.11e-07  Convergence criterion met
 Total energy in the final basis set =    -1179.6776932053
        RIMP2         total energy =     -1181.6606333498 a.u.

                    Orbital Energies (a.u.)
 --------------------------------------------------------------

 Alpha MOs
 -- Occupied --
-91.9848 -91.9835 -11.2821 -11.2785 -11.2713 -11.2641 -11.2526 -11.2521
-11.2430 -11.2418 -11.2294 -11.2291  -8.9847  -8.9835  -6.6656  -6.6650
 -6.6644  -6.6644  -6.6639  -6.6632  -1.1822  -1.1497  -1.0427  -1.0255
 -0.9990  -0.9521  -0.9147  -0.8953  -0.7997  -0.7657  -0.7198  -0.6957
 -0.6626  -0.6159  -0.5845  -0.5827  -0.5777  -0.5697  -0.5529  -0.5342
 -0.5229  -0.5214  -0.5121  -0.4963  -0.4877  -0.4668  -0.4495  -0.3714
 -0.3430  -0.3403  -0.2670

          Ground-State Mulliken Net Atomic Charges

     Atom                 Charge (a.u.)
  ----------------------------------------
      1 C                    -0.214017
      2 C                    -0.251767
      3 C                     0.049525
      4 H                     0.184700
      5 C                    -0.026139
      6 S                     0.002536
      7 C                    -0.321239
      8 H                     0.117248
      9 H                     0.115575
     10 H                     0.116134
     11 H                     0.206783
     12 C                     0.056600
     13 C                    -0.275444
     14 C                     0.042930
     15 H                     0.176762
     16 C                    -0.257657
     17 S                     0.027515
     18 C                    -0.269037
     19 H                     0.102780
     20 H                     0.108487
     21 H                     0.108677
     22 H                     0.199049
  ----------------------------------------
  Sum of atomic charges =     0.000000

                    Cartesian Multipole Moments
 -----------------------------------------------------------------
    Charge (ESU x 10^10)
                -0.0000
    Dipole Moment (Debye)
         X       0.6442      Y       0.3135      Z      -0.1815
       Tot       0.7390
    Quadrupole Moments (Debye-Ang)
        XX     -92.0022     XY      -0.3368     YY     -69.6895
        XZ      -0.2777     YZ       3.3123     ZZ     -79.8205

 Total job time:  564.02s(wall), 559.44s(cpu)
        *  Thank you very much for using Q-Chem.  Have a nice day.  *
