 Q-Chem 5.4, Q-Chem, Inc., Pleasanton, CA (2021)
 Q-Chem 5.4.0 for Intel X86 EM64T Linux

User input:
--------------------------------------------------------------
$molecule
0 1
C	-0.728625	-3.866725	0.264439
C	0.575519	-3.703963	-0.209794
C	1.002336	-2.357056	-0.364749
H	1.224165	-4.561092	-0.446060
C	0.000000	-1.440664	0.000000
S	-1.451336	-2.286957	0.528253
C	2.369885	-1.978743	-0.862253
H	2.976034	-2.878678	-1.082953
H	2.927887	-1.376015	-0.115513
H	2.317620	-1.375728	-1.792797
H	-1.292636	-4.783437	0.469476
C	0.000000	0.000000	0.000000
C	0.431829	0.747884	1.099446
C	1.123799	1.946373	0.776721
H	0.247423	0.428497	2.136088
C	1.234147	2.137457	-0.612546
S	0.471221	0.816130	-1.486809
C	1.667694	2.888380	1.814609
H	1.454874	2.519768	2.836676
H	1.222009	3.901210	1.726239
H	2.767675	3.008788	1.726228
H	1.708773	2.959493	-1.161575
$end

$rem
JOBTYPE		SP
EXCHANGE	HF
CORRELATION	pRIMP2
BASIS		cc-pvtz
METHOD		rimp2
AUX_BASIS	rimp2-cc-pvtz
SOLVENT_METHOD	PCM
PURECART	11111
SYMMETRY	false
MEM_TOTAL	110000
SCF_CONVERGENCE = 6
THRESH=10
$end

$solvent
dielectric 4.90
$end
--------------------------------------------------------------

             Standard Nuclear Orientation (Angstroms)
    I     Atom           X                Y                Z
 ----------------------------------------------------------------
    1      C      -0.7286250000    -3.8667250000     0.2644390000
    2      C       0.5755190000    -3.7039630000    -0.2097940000
    3      C       1.0023360000    -2.3570560000    -0.3647490000
    4      H       1.2241650000    -4.5610920000    -0.4460600000
    5      C       0.0000000000    -1.4406640000     0.0000000000
    6      S      -1.4513360000    -2.2869570000     0.5282530000
    7      C       2.3698850000    -1.9787430000    -0.8622530000
    8      H       2.9760340000    -2.8786780000    -1.0829530000
    9      H       2.9278870000    -1.3760150000    -0.1155130000
   10      H       2.3176200000    -1.3757280000    -1.7927970000
   11      H      -1.2926360000    -4.7834370000     0.4694760000
   12      C       0.0000000000     0.0000000000     0.0000000000
   13      C       0.4318290000     0.7478840000     1.0994460000
   14      C       1.1237990000     1.9463730000     0.7767210000
   15      H       0.2474230000     0.4284970000     2.1360880000
   16      C       1.2341470000     2.1374570000    -0.6125460000
   17      S       0.4712210000     0.8161300000    -1.4868090000
   18      C       1.6676940000     2.8883800000     1.8146090000
   19      H       1.4548740000     2.5197680000     2.8366760000
   20      H       1.2220090000     3.9012100000     1.7262390000
   21      H       2.7676750000     3.0087880000     1.7262280000
   22      H       1.7087730000     2.9594930000    -1.1615750000
 ----------------------------------------------------------------

   10   -1179.6674222831      5.84e-07  Convergence criterion met
 Total energy in the final basis set =    -1179.6674222831
        RIMP2         total energy =     -1181.6515749519 a.u.

                    Orbital Energies (a.u.)
 --------------------------------------------------------------

 Alpha MOs
 -- Occupied --
-91.9847 -91.9810 -11.2741 -11.2724 -11.2713 -11.2680 -11.2521 -11.2495
-11.2487 -11.2406 -11.2298 -11.2263  -8.9844  -8.9808  -6.6653  -6.6647
 -6.6642  -6.6617  -6.6612  -6.6606  -1.1805  -1.1486  -1.0417  -1.0201
 -0.9983  -0.9536  -0.9125  -0.8919  -0.7981  -0.7557  -0.7303  -0.6952
 -0.6597  -0.6169  -0.5813  -0.5796  -0.5734  -0.5695  -0.5508  -0.5319
 -0.5279  -0.5203  -0.5114  -0.4916  -0.4782  -0.4653  -0.4567  -0.3485
 -0.3404  -0.3251  -0.2932

          Ground-State Mulliken Net Atomic Charges

     Atom                 Charge (a.u.)
  ----------------------------------------
      1 C                    -0.217674
      2 C                    -0.251974
      3 C                     0.059102
      4 H                     0.183645
      5 C                    -0.023230
      6 S                     0.017606
      7 C                    -0.287822
      8 H                     0.109533
      9 H                     0.111710
     10 H                     0.113252
     11 H                     0.202778
     12 C                    -0.064262
     13 C                    -0.211463
     14 C                     0.019311
     15 H                     0.186977
     16 C                    -0.222002
     17 S                     0.026655
     18 C                    -0.269171
     19 H                     0.103124
     20 H                     0.108078
     21 H                     0.107181
     22 H                     0.198646
  ----------------------------------------
  Sum of atomic charges =     0.000000

                    Cartesian Multipole Moments
 -----------------------------------------------------------------
    Charge (ESU x 10^10)
                -0.0000
    Dipole Moment (Debye)
         X       2.5894      Y       0.6402      Z       0.9472
       Tot       2.8306
    Quadrupole Moments (Debye-Ang)
        XX     -84.4244     XY       2.8885     YY     -72.5951
        XZ      -1.6404     YZ       1.6499     ZZ     -85.6606

 Total job time:  592.61s(wall), 589.26s(cpu)
        *  Thank you very much for using Q-Chem.  Have a nice day.  *
