 Q-Chem 5.4, Q-Chem, Inc., Pleasanton, CA (2021)
 Q-Chem 5.4.0 for Intel X86 EM64T Linux

User input:
--------------------------------------------------------------
$molecule
0 1
C	0.265779	-3.866725	-0.728138
C	-0.209225	-3.703963	0.575726
C	-0.364875	-2.357056	1.002290
H	-0.445176	-4.561092	1.224486
C	-0.000000	-1.440664	-0.000000
S	0.528236	-2.286957	-1.451343
C	-0.862808	-1.978743	2.369683
H	-1.083368	-2.878678	2.975883
H	-1.793522	-1.376015	2.317142
H	-0.116375	-1.375728	2.927787
H	0.471251	-4.783437	-1.291990
C	0.000000	0.000000	0.000000
C	0.555137	0.661535	1.099446
C	1.444710	1.721658	0.776721
H	0.318072	0.379023	2.136088
C	1.586563	1.890676	-0.612546
S	0.605781	0.721904	-1.486809
C	2.143920	2.554907	1.814609
H	1.870325	2.228851	2.836676
H	1.880882	3.629742	1.726239
H	3.248098	2.482476	1.726228
H	2.196723	2.617806	-1.161575
$end

$rem
JOBTYPE		SP
EXCHANGE	HF
CORRELATION	pRIMP2
BASIS		cc-pvtz
METHOD		rimp2
AUX_BASIS	rimp2-cc-pvtz
SOLVENT_METHOD	PCM
PURECART	11111
SYMMETRY	false
MEM_TOTAL	110000
SCF_CONVERGENCE = 6
THRESH=10
$end

$solvent
dielectric 4.90
$end
--------------------------------------------------------------

             Standard Nuclear Orientation (Angstroms)
    I     Atom           X                Y                Z
 ----------------------------------------------------------------
    1      C       0.2657790000    -3.8667250000    -0.7281380000
    2      C      -0.2092250000    -3.7039630000     0.5757260000
    3      C      -0.3648750000    -2.3570560000     1.0022900000
    4      H      -0.4451760000    -4.5610920000     1.2244860000
    5      C       0.0000000000    -1.4406640000     0.0000000000
    6      S       0.5282360000    -2.2869570000    -1.4513430000
    7      C      -0.8628080000    -1.9787430000     2.3696830000
    8      H      -1.0833680000    -2.8786780000     2.9758830000
    9      H      -1.7935220000    -1.3760150000     2.3171420000
   10      H      -0.1163750000    -1.3757280000     2.9277870000
   11      H       0.4712510000    -4.7834370000    -1.2919900000
   12      C       0.0000000000     0.0000000000     0.0000000000
   13      C       0.5551370000     0.6615350000     1.0994460000
   14      C       1.4447100000     1.7216580000     0.7767210000
   15      H       0.3180720000     0.3790230000     2.1360880000
   16      C       1.5865630000     1.8906760000    -0.6125460000
   17      S       0.6057810000     0.7219040000    -1.4868090000
   18      C       2.1439200000     2.5549070000     1.8146090000
   19      H       1.8703250000     2.2288510000     2.8366760000
   20      H       1.8808820000     3.6297420000     1.7262390000
   21      H       3.2480980000     2.4824760000     1.7262280000
   22      H       2.1967230000     2.6178060000    -1.1615750000
 ----------------------------------------------------------------

   10   -1179.6517570637      7.41e-07  Convergence criterion met
 Total energy in the final basis set =    -1179.6517570637
        RIMP2         total energy =     -1181.6400512901 a.u.

                    Orbital Energies (a.u.)
 --------------------------------------------------------------

 Alpha MOs
 -- Occupied --
-91.9859 -91.9804 -11.2786 -11.2775 -11.2735 -11.2612 -11.2550 -11.2533
-11.2414 -11.2397 -11.2310 -11.2286  -8.9862  -8.9804  -6.6670  -6.6664
 -6.6659  -6.6613  -6.6606  -6.6600  -1.1860  -1.1481  -1.0451  -1.0237
 -0.9966  -0.9563  -0.9112  -0.8942  -0.8020  -0.7550  -0.7301  -0.6997
 -0.6576  -0.6155  -0.5932  -0.5818  -0.5706  -0.5619  -0.5512  -0.5408
 -0.5323  -0.5202  -0.5064  -0.4891  -0.4833  -0.4718  -0.4473  -0.3701
 -0.3456  -0.3343  -0.2657

          Ground-State Mulliken Net Atomic Charges

     Atom                 Charge (a.u.)
  ----------------------------------------
      1 C                    -0.244052
      2 C                    -0.241914
      3 C                     0.027963
      4 H                     0.181976
      5 C                    -0.006725
      6 S                     0.009580
      7 C                    -0.308366
      8 H                     0.113495
      9 H                     0.113713
     10 H                     0.098598
     11 H                     0.203203
     12 C                    -0.033744
     13 C                    -0.178820
     14 C                     0.005359
     15 H                     0.197225
     16 C                    -0.206759
     17 S                     0.016179
     18 C                    -0.268583
     19 H                     0.102012
     20 H                     0.108958
     21 H                     0.108071
     22 H                     0.202630
  ----------------------------------------
  Sum of atomic charges =     0.000000

                    Cartesian Multipole Moments
 -----------------------------------------------------------------
    Charge (ESU x 10^10)
                -0.0000
    Dipole Moment (Debye)
         X       1.2393      Y       1.1046      Z       2.8342
       Tot       3.2847
    Quadrupole Moments (Debye-Ang)
        XX     -86.8878     XY       6.7521     YY     -75.5738
        XZ      -1.4485     YZ      -1.4455     ZZ     -80.8284

 Total job time:  575.72s(wall), 572.21s(cpu)
        *  Thank you very much for using Q-Chem.  Have a nice day.  *
