 Q-Chem 5.4, Q-Chem, Inc., Pleasanton, CA (2021)
 Q-Chem 5.4.0 for Intel X86 EM64T Linux

User input:
--------------------------------------------------------------
$molecule
0 1
C	-0.133897	-3.866725	-0.763475
C	0.106669	-3.703963	0.603206
C	0.185154	-2.357056	1.050446
H	0.226709	-4.561092	1.283024
C	0.000000	-1.440664	0.000000
S	-0.268206	-2.286957	-1.521018
C	0.437628	-1.978743	2.483610
H	0.549717	-2.878678	3.118875
H	-0.394664	-1.376015	2.903464
H	1.363110	-1.375728	2.593726
H	-0.237880	-4.783437	-1.354522
C	0.000000	0.000000	0.000000
C	0.000033	0.863600	1.099446
C	0.000052	2.247508	0.776721
H	0.000026	0.494801	2.136088
C	0.000074	2.468165	-0.612546
S	0.000024	0.942399	-1.486809
C	0.000075	3.335257	1.814609
H	0.000074	2.909620	2.836676
H	-0.892314	3.989552	1.726239
H	0.892483	3.989525	1.726228
H	0.000094	3.417382	-1.161575
$end

$rem
JOBTYPE		SP
EXCHANGE	HF
CORRELATION	pRIMP2
BASIS		cc-pvtz
METHOD		rimp2
AUX_BASIS	rimp2-cc-pvtz
SOLVENT_METHOD	PCM
PURECART	11111
SYMMETRY	false
MEM_TOTAL	110000
SCF_CONVERGENCE = 6
THRESH=10
$end

$solvent
dielectric 4.90
$end
--------------------------------------------------------------

             Standard Nuclear Orientation (Angstroms)
    I     Atom           X                Y                Z
 ----------------------------------------------------------------
    1      C      -0.1338970000    -3.8667250000    -0.7634750000
    2      C       0.1066690000    -3.7039630000     0.6032060000
    3      C       0.1851540000    -2.3570560000     1.0504460000
    4      H       0.2267090000    -4.5610920000     1.2830240000
    5      C       0.0000000000    -1.4406640000     0.0000000000
    6      S      -0.2682060000    -2.2869570000    -1.5210180000
    7      C       0.4376280000    -1.9787430000     2.4836100000
    8      H       0.5497170000    -2.8786780000     3.1188750000
    9      H      -0.3946640000    -1.3760150000     2.9034640000
   10      H       1.3631100000    -1.3757280000     2.5937260000
   11      H      -0.2378800000    -4.7834370000    -1.3545220000
   12      C       0.0000000000     0.0000000000     0.0000000000
   13      C       0.0000330000     0.8636000000     1.0994460000
   14      C       0.0000520000     2.2475080000     0.7767210000
   15      H       0.0000260000     0.4948010000     2.1360880000
   16      C       0.0000740000     2.4681650000    -0.6125460000
   17      S       0.0000240000     0.9423990000    -1.4868090000
   18      C       0.0000750000     3.3352570000     1.8146090000
   19      H       0.0000740000     2.9096200000     2.8366760000
   20      H      -0.8923140000     3.9895520000     1.7262390000
   21      H       0.8924830000     3.9895250000     1.7262280000
   22      H       0.0000940000     3.4173820000    -1.1615750000
 ----------------------------------------------------------------

   10   -1179.6857313732      5.27e-07  Convergence criterion met
 Total energy in the final basis set =    -1179.6857313732
        RIMP2         total energy =     -1181.6656817692 a.u.

                    Orbital Energies (a.u.)
 --------------------------------------------------------------

 Alpha MOs
 -- Occupied --
-91.9859 -91.9853 -11.2841 -11.2788 -11.2730 -11.2638 -11.2544 -11.2522
-11.2442 -11.2395 -11.2320 -11.2294  -8.9857  -8.9853  -6.6666  -6.6662
 -6.6661  -6.6657  -6.6654  -6.6650  -1.1817  -1.1505  -1.0421  -1.0281
 -0.9959  -0.9565  -0.9149  -0.8947  -0.8037  -0.7572  -0.7270  -0.7010
 -0.6626  -0.6141  -0.5908  -0.5823  -0.5701  -0.5641  -0.5524  -0.5401
 -0.5297  -0.5239  -0.5043  -0.4907  -0.4893  -0.4777  -0.4510  -0.3705
 -0.3478  -0.3377  -0.2691

          Ground-State Mulliken Net Atomic Charges

     Atom                 Charge (a.u.)
  ----------------------------------------
      1 C                    -0.211897
      2 C                    -0.257208
      3 C                     0.079074
      4 H                     0.184189
      5 C                    -0.052874
      6 S                     0.007993
      7 C                    -0.315193
      8 H                     0.119282
      9 H                     0.107169
     10 H                     0.115644
     11 H                     0.207942
     12 C                     0.033277
     13 C                    -0.237163
     14 C                     0.020368
     15 H                     0.195882
     16 C                    -0.250560
     17 S                     0.006987
     18 C                    -0.271992
     19 H                     0.101388
     20 H                     0.108815
     21 H                     0.108764
     22 H                     0.200112
  ----------------------------------------
  Sum of atomic charges =     0.000000

                    Cartesian Multipole Moments
 -----------------------------------------------------------------
    Charge (ESU x 10^10)
                -0.0000
    Dipole Moment (Debye)
         X       0.2626      Y       0.0972      Z       2.9133
       Tot       2.9268
    Quadrupole Moments (Debye-Ang)
        XX     -92.5842     XY      -0.3815     YY     -68.1565
        XZ       1.1596     YZ      -1.1319     ZZ     -80.2298

 Total job time:  595.47s(wall), 591.60s(cpu)
        *  Thank you very much for using Q-Chem.  Have a nice day.  *
