 Q-Chem 5.4, Q-Chem, Inc., Pleasanton, CA (2021)
 Q-Chem 5.4.0 for Intel X86 EM64T Linux

User input:
--------------------------------------------------------------
$molecule
0 1
C	0.000713	-3.866725	-0.775127
C	0.000302	-3.703963	0.612565
C	-0.000067	-2.357056	1.066639
H	0.000470	-4.561092	1.302900
C	-0.000000	-1.440664	-0.000000
S	-0.000009	-2.286957	-1.544483
C	-0.000295	-1.978743	2.521872
H	-0.000221	-2.878678	3.166949
H	-0.892850	-1.376015	2.790821
H	0.892005	-1.375728	2.791023
H	0.000945	-4.783437	-1.375251
C	0.000000	0.000000	0.000000
C	0.365003	0.782674	1.099446
C	0.949885	2.036912	0.776721
H	0.209135	0.448431	2.136088
C	1.043159	2.236886	-0.612546
S	0.398297	0.854094	-1.486809
C	1.409609	3.022738	1.814609
H	1.229726	2.636980	2.836676
H	0.877346	3.992870	1.726239
H	2.494910	3.238558	1.726228
H	1.444334	3.097160	-1.161575
$end

$rem
JOBTYPE		SP
EXCHANGE	HF
CORRELATION	pRIMP2
BASIS		cc-pvtz
METHOD		rimp2
AUX_BASIS	rimp2-cc-pvtz
SOLVENT_METHOD	PCM
PURECART	11111
SYMMETRY	false
MEM_TOTAL	110000
SCF_CONVERGENCE = 6
THRESH=10
$end

$solvent
dielectric 4.90
$end
--------------------------------------------------------------

             Standard Nuclear Orientation (Angstroms)
    I     Atom           X                Y                Z
 ----------------------------------------------------------------
    1      C       0.0007130000    -3.8667250000    -0.7751270000
    2      C       0.0003020000    -3.7039630000     0.6125650000
    3      C      -0.0000670000    -2.3570560000     1.0666390000
    4      H       0.0004700000    -4.5610920000     1.3029000000
    5      C       0.0000000000    -1.4406640000     0.0000000000
    6      S      -0.0000090000    -2.2869570000    -1.5444830000
    7      C      -0.0002950000    -1.9787430000     2.5218720000
    8      H      -0.0002210000    -2.8786780000     3.1669490000
    9      H      -0.8928500000    -1.3760150000     2.7908210000
   10      H       0.8920050000    -1.3757280000     2.7910230000
   11      H       0.0009450000    -4.7834370000    -1.3752510000
   12      C       0.0000000000     0.0000000000     0.0000000000
   13      C       0.3650030000     0.7826740000     1.0994460000
   14      C       0.9498850000     2.0369120000     0.7767210000
   15      H       0.2091350000     0.4484310000     2.1360880000
   16      C       1.0431590000     2.2368860000    -0.6125460000
   17      S       0.3982970000     0.8540940000    -1.4868090000
   18      C       1.4096090000     3.0227380000     1.8146090000
   19      H       1.2297260000     2.6369800000     2.8366760000
   20      H       0.8773460000     3.9928700000     1.7262390000
   21      H       2.4949100000     3.2385580000     1.7262280000
   22      H       1.4443340000     3.0971600000    -1.1615750000
 ----------------------------------------------------------------

   10   -1179.6720544255      4.79e-07  Convergence criterion met
 Total energy in the final basis set =    -1179.6720544255
        RIMP2         total energy =     -1181.6557652714 a.u.

                    Orbital Energies (a.u.)
 --------------------------------------------------------------

 Alpha MOs
 -- Occupied --
-91.9853 -91.9827 -11.2801 -11.2786 -11.2694 -11.2687 -11.2529 -11.2502
-11.2437 -11.2427 -11.2310 -11.2299  -8.9853  -8.9829  -6.6663  -6.6657
 -6.6651  -6.6638  -6.6633  -6.6626  -1.1829  -1.1498  -1.0430  -1.0271
 -0.9958  -0.9563  -0.9140  -0.8948  -0.8025  -0.7566  -0.7276  -0.7014
 -0.6606  -0.6140  -0.5921  -0.5823  -0.5705  -0.5632  -0.5520  -0.5407
 -0.5298  -0.5235  -0.5045  -0.4910  -0.4840  -0.4773  -0.4489  -0.3712
 -0.3485  -0.3358  -0.2668

          Ground-State Mulliken Net Atomic Charges

     Atom                 Charge (a.u.)
  ----------------------------------------
      1 C                    -0.222162
      2 C                    -0.247477
      3 C                     0.056324
      4 H                     0.184152
      5 C                    -0.034868
      6 S                     0.006309
      7 C                    -0.314577
      8 H                     0.117813
      9 H                     0.110426
     10 H                     0.107253
     11 H                     0.206360
     12 C                     0.029864
     13 C                    -0.250385
     14 C                     0.033030
     15 H                     0.194947
     16 C                    -0.241575
     17 S                     0.014042
     18 C                    -0.269434
     19 H                     0.101662
     20 H                     0.108868
     21 H                     0.108702
     22 H                     0.200727
  ----------------------------------------
  Sum of atomic charges =     0.000000

                    Cartesian Multipole Moments
 -----------------------------------------------------------------
    Charge (ESU x 10^10)
                -0.0000
    Dipole Moment (Debye)
         X       0.9151      Y       0.4458      Z       2.9720
       Tot       3.1415
    Quadrupole Moments (Debye-Ang)
        XX     -90.6810     XY       4.3548     YY     -71.0095
        XZ       0.4105     YZ      -1.3722     ZZ     -80.0751

 Total job time:  569.43s(wall), 565.91s(cpu)
        *  Thank you very much for using Q-Chem.  Have a nice day.  *
