 Q-Chem 5.4, Q-Chem, Inc., Pleasanton, CA (2021)
 Q-Chem 5.4.0 for Intel X86 EM64T Linux

User input:
--------------------------------------------------------------
$molecule
0 1
C	-0.594240	-3.866725	0.497696
C	0.469057	-3.703963	-0.393981
C	0.817136	-2.357056	-0.685571
H	0.997777	-4.561092	-0.837848
C	0.000000	-1.440664	0.000000
S	-1.183137	-2.286957	0.992782
C	1.932056	-1.978743	-1.620802
H	2.426166	-2.878678	-2.035506
H	2.711806	-1.376015	-1.109943
H	1.564678	-1.375728	-2.477350
H	-1.054110	-4.783437	0.883271
C	0.000000	0.000000	0.000000
C	0.431829	0.747884	1.099446
C	1.123799	1.946373	0.776721
H	0.247423	0.428497	2.136088
C	1.234147	2.137457	-0.612546
S	0.471221	0.816130	-1.486809
C	1.667694	2.888380	1.814609
H	1.454874	2.519768	2.836676
H	1.222009	3.901210	1.726239
H	2.767675	3.008788	1.726228
H	1.708773	2.959493	-1.161575
$end

$rem
JOBTYPE		SP
EXCHANGE	HF
CORRELATION	pRIMP2
BASIS		cc-pvtz
METHOD		rimp2
AUX_BASIS	rimp2-cc-pvtz
SOLVENT_METHOD	PCM
PURECART	11111
SYMMETRY	false
MEM_TOTAL	110000
SCF_CONVERGENCE = 6
THRESH=10
$end

$solvent
dielectric 4.90
$end
--------------------------------------------------------------

             Standard Nuclear Orientation (Angstroms)
    I     Atom           X                Y                Z
 ----------------------------------------------------------------
    1      C      -0.5942400000    -3.8667250000     0.4976960000
    2      C       0.4690570000    -3.7039630000    -0.3939810000
    3      C       0.8171360000    -2.3570560000    -0.6855710000
    4      H       0.9977770000    -4.5610920000    -0.8378480000
    5      C       0.0000000000    -1.4406640000     0.0000000000
    6      S      -1.1831370000    -2.2869570000     0.9927820000
    7      C       1.9320560000    -1.9787430000    -1.6208020000
    8      H       2.4261660000    -2.8786780000    -2.0355060000
    9      H       2.7118060000    -1.3760150000    -1.1099430000
   10      H       1.5646780000    -1.3757280000    -2.4773500000
   11      H      -1.0541100000    -4.7834370000     0.8832710000
   12      C       0.0000000000     0.0000000000     0.0000000000
   13      C       0.4318290000     0.7478840000     1.0994460000
   14      C       1.1237990000     1.9463730000     0.7767210000
   15      H       0.2474230000     0.4284970000     2.1360880000
   16      C       1.2341470000     2.1374570000    -0.6125460000
   17      S       0.4712210000     0.8161300000    -1.4868090000
   18      C       1.6676940000     2.8883800000     1.8146090000
   19      H       1.4548740000     2.5197680000     2.8366760000
   20      H       1.2220090000     3.9012100000     1.7262390000
   21      H       2.7676750000     3.0087880000     1.7262280000
   22      H       1.7087730000     2.9594930000    -1.1615750000
 ----------------------------------------------------------------

   10   -1179.6645215366      5.75e-07  Convergence criterion met
 Total energy in the final basis set =    -1179.6645215366
        RIMP2         total energy =     -1181.6498621210 a.u.

                    Orbital Energies (a.u.)
 --------------------------------------------------------------

 Alpha MOs
 -- Occupied --
-91.9838 -91.9813 -11.2762 -11.2744 -11.2708 -11.2673 -11.2520 -11.2480
-11.2480 -11.2409 -11.2296 -11.2250  -8.9838  -8.9811  -6.6647  -6.6641
 -6.6636  -6.6621  -6.6615  -6.6609  -1.1814  -1.1485  -1.0423  -1.0205
 -0.9984  -0.9531  -0.9120  -0.8929  -0.7977  -0.7594  -0.7266  -0.6953
 -0.6594  -0.6166  -0.5821  -0.5792  -0.5750  -0.5694  -0.5508  -0.5328
 -0.5273  -0.5199  -0.5116  -0.4934  -0.4778  -0.4647  -0.4542  -0.3563
 -0.3402  -0.3335  -0.2794

          Ground-State Mulliken Net Atomic Charges

     Atom                 Charge (a.u.)
  ----------------------------------------
      1 C                    -0.218530
      2 C                    -0.253200
      3 C                     0.048322
      4 H                     0.183960
      5 C                    -0.023654
      6 S                     0.011803
      7 C                    -0.292586
      8 H                     0.107211
      9 H                     0.116677
     10 H                     0.113690
     11 H                     0.203254
     12 C                    -0.044046
     13 C                    -0.203871
     14 C                     0.011357
     15 H                     0.188527
     16 C                    -0.219067
     17 S                     0.022074
     18 C                    -0.268942
     19 H                     0.103074
     20 H                     0.108003
     21 H                     0.107163
     22 H                     0.198782
  ----------------------------------------
  Sum of atomic charges =     0.000000

                    Cartesian Multipole Moments
 -----------------------------------------------------------------
    Charge (ESU x 10^10)
                -0.0000
    Dipole Moment (Debye)
         X       2.3387      Y       0.6826      Z       0.4263
       Tot       2.4733
    Quadrupole Moments (Debye-Ang)
        XX     -86.2557     XY       3.3425     YY     -72.9904
        XZ      -2.7363     YZ       2.2273     ZZ     -83.6838

 Total job time:  560.57s(wall), 557.90s(cpu)
        *  Thank you very much for using Q-Chem.  Have a nice day.  *
