 Q-Chem 5.4, Q-Chem, Inc., Pleasanton, CA (2021)
 Q-Chem 5.4.0 for Intel X86 EM64T Linux

User input:
--------------------------------------------------------------
$molecule
0 1
C	-0.498788	-3.866725	0.593324
C	0.393517	-3.703963	-0.469446
C	0.685674	-2.357056	-0.817050
H	0.837128	-4.561092	-0.998381
C	0.000000	-1.440664	0.000000
S	-0.992768	-2.286957	1.183149
C	1.621254	-1.978743	-1.931676
H	2.035845	-2.878678	-2.425882
H	2.477868	-1.376015	-1.563980
H	1.110719	-1.375728	-2.711417
H	-0.884718	-4.783437	1.052896
C	0.000000	0.000000	0.000000
C	0.431829	0.747884	1.099446
C	1.123799	1.946373	0.776721
H	0.247423	0.428497	2.136088
C	1.234147	2.137457	-0.612546
S	0.471221	0.816130	-1.486809
C	1.667694	2.888380	1.814609
H	1.454874	2.519768	2.836676
H	1.222009	3.901210	1.726239
H	2.767675	3.008788	1.726228
H	1.708773	2.959493	-1.161575
$end

$rem
JOBTYPE		SP
EXCHANGE	HF
CORRELATION	pRIMP2
BASIS		cc-pvtz
METHOD		rimp2
AUX_BASIS	rimp2-cc-pvtz
SOLVENT_METHOD	PCM
PURECART	11111
SYMMETRY	false
MEM_TOTAL	110000
SCF_CONVERGENCE = 6
THRESH=10
$end

$solvent
dielectric 4.90
$end
--------------------------------------------------------------

             Standard Nuclear Orientation (Angstroms)
    I     Atom           X                Y                Z
 ----------------------------------------------------------------
    1      C      -0.4987880000    -3.8667250000     0.5933240000
    2      C       0.3935170000    -3.7039630000    -0.4694460000
    3      C       0.6856740000    -2.3570560000    -0.8170500000
    4      H       0.8371280000    -4.5610920000    -0.9983810000
    5      C       0.0000000000    -1.4406640000     0.0000000000
    6      S      -0.9927680000    -2.2869570000     1.1831490000
    7      C       1.6212540000    -1.9787430000    -1.9316760000
    8      H       2.0358450000    -2.8786780000    -2.4258820000
    9      H       2.4778680000    -1.3760150000    -1.5639800000
   10      H       1.1107190000    -1.3757280000    -2.7114170000
   11      H      -0.8847180000    -4.7834370000     1.0528960000
   12      C       0.0000000000     0.0000000000     0.0000000000
   13      C       0.4318290000     0.7478840000     1.0994460000
   14      C       1.1237990000     1.9463730000     0.7767210000
   15      H       0.2474230000     0.4284970000     2.1360880000
   16      C       1.2341470000     2.1374570000    -0.6125460000
   17      S       0.4712210000     0.8161300000    -1.4868090000
   18      C       1.6676940000     2.8883800000     1.8146090000
   19      H       1.4548740000     2.5197680000     2.8366760000
   20      H       1.2220090000     3.9012100000     1.7262390000
   21      H       2.7676750000     3.0087880000     1.7262280000
   22      H       1.7087730000     2.9594930000    -1.1615750000
 ----------------------------------------------------------------

   10   -1179.6631895073      5.80e-07  Convergence criterion met
 Total energy in the final basis set =    -1179.6631895073
        RIMP2         total energy =     -1181.6491182589 a.u.

                    Orbital Energies (a.u.)
 --------------------------------------------------------------

 Alpha MOs
 -- Occupied --
-91.9834 -91.9813 -11.2774 -11.2756 -11.2701 -11.2673 -11.2519 -11.2477
-11.2473 -11.2411 -11.2295 -11.2252  -8.9835  -8.9812  -6.6644  -6.6638
 -6.6632  -6.6622  -6.6616  -6.6610  -1.1819  -1.1485  -1.0426  -1.0214
 -0.9984  -0.9528  -0.9120  -0.8938  -0.7976  -0.7612  -0.7248  -0.6954
 -0.6595  -0.6165  -0.5829  -0.5793  -0.5762  -0.5694  -0.5510  -0.5330
 -0.5268  -0.5200  -0.5118  -0.4943  -0.4786  -0.4642  -0.4524  -0.3613
 -0.3404  -0.3354  -0.2741

          Ground-State Mulliken Net Atomic Charges

     Atom                 Charge (a.u.)
  ----------------------------------------
      1 C                    -0.218816
      2 C                    -0.252872
      3 C                     0.044720
      4 H                     0.184184
      5 C                    -0.027267
      6 S                     0.008781
      7 C                    -0.294941
      8 H                     0.107112
      9 H                     0.118684
     10 H                     0.111249
     11 H                     0.203696
     12 C                    -0.026254
     13 C                    -0.204979
     14 C                     0.010393
     15 H                     0.187259
     16 C                    -0.220374
     17 S                     0.021091
     18 C                    -0.268970
     19 H                     0.103043
     20 H                     0.108066
     21 H                     0.107166
     22 H                     0.199031
  ----------------------------------------
  Sum of atomic charges =     0.000000

                    Cartesian Multipole Moments
 -----------------------------------------------------------------
    Charge (ESU x 10^10)
                -0.0000
    Dipole Moment (Debye)
         X       2.1544      Y       0.6562      Z       0.2059
       Tot       2.2615
    Quadrupole Moments (Debye-Ang)
        XX     -87.2678     XY       3.5546     YY     -73.0741
        XZ      -2.7574     YZ       2.4600     ZZ     -82.5788

 Total job time:  562.58s(wall), 559.06s(cpu)
        *  Thank you very much for using Q-Chem.  Have a nice day.  *
