 Q-Chem 5.4, Q-Chem, Inc., Pleasanton, CA (2021)
 Q-Chem 5.4.0 for Intel X86 EM64T Linux

User input:
--------------------------------------------------------------
$molecule
0 1
C	-0.265779	-3.866725	0.728138
C	0.209225	-3.703963	-0.575726
C	0.364875	-2.357056	-1.002290
H	0.445176	-4.561092	-1.224486
C	0.000000	-1.440664	0.000000
S	-0.528236	-2.286957	1.451343
C	0.862808	-1.978743	-2.369683
H	1.083368	-2.878678	-2.975883
H	1.793522	-1.376015	-2.317142
H	0.116375	-1.375728	-2.927787
H	-0.471251	-4.783437	1.291990
C	0.000000	0.000000	0.000000
C	0.747916	0.431772	1.099446
C	1.946425	1.123709	0.776721
H	0.428523	0.247378	2.136088
C	2.137531	1.234018	-0.612546
S	0.816154	0.471179	-1.486809
C	2.888455	1.667564	1.814609
H	2.519842	1.454746	2.836676
H	3.008896	2.767543	1.726239
H	3.901271	1.221850	1.726228
H	2.959587	1.708609	-1.161575
$end

$rem
JOBTYPE		SP
EXCHANGE	HF
CORRELATION	pRIMP2
BASIS		cc-pvtz
METHOD		rimp2
AUX_BASIS	rimp2-cc-pvtz
SOLVENT_METHOD	PCM
PURECART	11111
SYMMETRY	false
MEM_TOTAL	110000
SCF_CONVERGENCE = 6
THRESH=10
$end

$solvent
dielectric 4.90
$end
--------------------------------------------------------------

             Standard Nuclear Orientation (Angstroms)
    I     Atom           X                Y                Z
 ----------------------------------------------------------------
    1      C      -0.2657790000    -3.8667250000     0.7281380000
    2      C       0.2092250000    -3.7039630000    -0.5757260000
    3      C       0.3648750000    -2.3570560000    -1.0022900000
    4      H       0.4451760000    -4.5610920000    -1.2244860000
    5      C       0.0000000000    -1.4406640000     0.0000000000
    6      S      -0.5282360000    -2.2869570000     1.4513430000
    7      C       0.8628080000    -1.9787430000    -2.3696830000
    8      H       1.0833680000    -2.8786780000    -2.9758830000
    9      H       1.7935220000    -1.3760150000    -2.3171420000
   10      H       0.1163750000    -1.3757280000    -2.9277870000
   11      H      -0.4712510000    -4.7834370000     1.2919900000
   12      C       0.0000000000     0.0000000000     0.0000000000
   13      C       0.7479160000     0.4317720000     1.0994460000
   14      C       1.9464250000     1.1237090000     0.7767210000
   15      H       0.4285230000     0.2473780000     2.1360880000
   16      C       2.1375310000     1.2340180000    -0.6125460000
   17      S       0.8161540000     0.4711790000    -1.4868090000
   18      C       2.8884550000     1.6675640000     1.8146090000
   19      H       2.5198420000     1.4547460000     2.8366760000
   20      H       3.0088960000     2.7675430000     1.7262390000
   21      H       3.9012710000     1.2218500000     1.7262280000
   22      H       2.9595870000     1.7086090000    -1.1615750000
 ----------------------------------------------------------------

   11   -1179.5857743884      6.60e-07  Convergence criterion met
 Total energy in the final basis set =    -1179.5857743884
        RIMP2         total energy =     -1181.5892930122 a.u.

                    Orbital Energies (a.u.)
 --------------------------------------------------------------

 Alpha MOs
 -- Occupied --
-91.9804 -91.9727 -11.2889 -11.2821 -11.2639 -11.2576 -11.2561 -11.2536
-11.2376 -11.2334 -11.2311 -11.2210  -8.9825  -8.9733  -6.6628  -6.6622
 -6.6618  -6.6544  -6.6538  -6.6531  -1.1943  -1.1443  -1.0485  -1.0262
 -0.9975  -0.9495  -0.9101  -0.8970  -0.7932  -0.7667  -0.7260  -0.6942
 -0.6544  -0.6212  -0.5923  -0.5854  -0.5765  -0.5694  -0.5502  -0.5363
 -0.5248  -0.5220  -0.5115  -0.4948  -0.4677  -0.4518  -0.4400  -0.3688
 -0.3378  -0.3300  -0.2616

          Ground-State Mulliken Net Atomic Charges

     Atom                 Charge (a.u.)
  ----------------------------------------
      1 C                    -0.241272
      2 C                    -0.248859
      3 C                    -0.005437
      4 H                     0.182604
      5 C                     0.006601
      6 S                    -0.027020
      7 C                    -0.267527
      8 H                     0.099488
      9 H                     0.111423
     10 H                     0.102831
     11 H                     0.200120
     12 C                    -0.108520
     13 C                    -0.098393
     14 C                    -0.026063
     15 H                     0.188757
     16 C                    -0.181969
     17 S                     0.059071
     18 C                    -0.264901
     19 H                     0.103633
     20 H                     0.107120
     21 H                     0.105452
     22 H                     0.202862
  ----------------------------------------
  Sum of atomic charges =     0.000000

                    Cartesian Multipole Moments
 -----------------------------------------------------------------
    Charge (ESU x 10^10)
                -0.0000
    Dipole Moment (Debye)
         X       3.5116      Y       1.2411      Z      -0.1893
       Tot       3.7293
    Quadrupole Moments (Debye-Ang)
        XX     -82.0913     XY       4.5941     YY     -82.4296
        XZ      -1.8042     YZ       2.6888     ZZ     -80.3605

 Total job time:  651.69s(wall), 647.88s(cpu)
        *  Thank you very much for using Q-Chem.  Have a nice day.  *
