 Q-Chem 5.4, Q-Chem, Inc., Pleasanton, CA (2021)
 Q-Chem 5.4.0 for Intel X86 EM64T Linux

User input:
--------------------------------------------------------------
$molecule
0 1
C	0.670748	-3.808105	0.775127
C	0.642889	-3.647744	-0.612565
C	0.409365	-2.321236	-1.066639
H	0.791563	-4.491881	-1.302900
C	0.250169	-1.418777	0.000000
S	0.397135	-2.252211	1.544483
C	0.343896	-1.948630	-2.521872
H	0.500095	-2.834906	-3.166949
H	1.118228	-1.200068	-2.790821
H	-0.639561	-1.509723	-2.791023
H	0.829705	-4.710930	1.375251
C	0.000000	0.000000	0.000000
C	0.431829	0.747884	1.099446
C	1.123799	1.946373	0.776721
H	0.247423	0.428497	2.136088
C	1.234147	2.137457	-0.612546
S	0.471221	0.816130	-1.486809
C	1.667694	2.888380	1.814609
H	1.454874	2.519768	2.836676
H	1.222009	3.901210	1.726239
H	2.767675	3.008788	1.726228
H	1.708773	2.959493	-1.161575
$end

$rem
JOBTYPE		SP
EXCHANGE	HF
CORRELATION	pRIMP2
BASIS		cc-pvtz
METHOD		rimp2
AUX_BASIS	rimp2-cc-pvtz
SOLVENT_METHOD	PCM
PURECART	11111
SYMMETRY	false
MEM_TOTAL	110000
SCF_CONVERGENCE = 6
THRESH=10
$end

$solvent
dielectric 4.90
$end
--------------------------------------------------------------

             Standard Nuclear Orientation (Angstroms)
    I     Atom           X                Y                Z
 ----------------------------------------------------------------
    1      C       0.6707480000    -3.8081050000     0.7751270000
    2      C       0.6428890000    -3.6477440000    -0.6125650000
    3      C       0.4093650000    -2.3212360000    -1.0666390000
    4      H       0.7915630000    -4.4918810000    -1.3029000000
    5      C       0.2501690000    -1.4187770000     0.0000000000
    6      S       0.3971350000    -2.2522110000     1.5444830000
    7      C       0.3438960000    -1.9486300000    -2.5218720000
    8      H       0.5000950000    -2.8349060000    -3.1669490000
    9      H       1.1182280000    -1.2000680000    -2.7908210000
   10      H      -0.6395610000    -1.5097230000    -2.7910230000
   11      H       0.8297050000    -4.7109300000     1.3752510000
   12      C       0.0000000000     0.0000000000     0.0000000000
   13      C       0.4318290000     0.7478840000     1.0994460000
   14      C       1.1237990000     1.9463730000     0.7767210000
   15      H       0.2474230000     0.4284970000     2.1360880000
   16      C       1.2341470000     2.1374570000    -0.6125460000
   17      S       0.4712210000     0.8161300000    -1.4868090000
   18      C       1.6676940000     2.8883800000     1.8146090000
   19      H       1.4548740000     2.5197680000     2.8366760000
   20      H       1.2220090000     3.9012100000     1.7262390000
   21      H       2.7676750000     3.0087880000     1.7262280000
   22      H       1.7087730000     2.9594930000    -1.1615750000
 ----------------------------------------------------------------

   10   -1179.6496261637      7.65e-07  Convergence criterion met
 Total energy in the final basis set =    -1179.6496261637
        RIMP2         total energy =     -1181.6397447299 a.u.

                    Orbital Energies (a.u.)
 --------------------------------------------------------------

 Alpha MOs
 -- Occupied --
-91.9838 -91.9791 -11.2788 -11.2738 -11.2737 -11.2647 -11.2538 -11.2504
-11.2442 -11.2404 -11.2300 -11.2259  -8.9843  -8.9794  -6.6650  -6.6644
 -6.6638  -6.6604  -6.6598  -6.6591  -1.1855  -1.1480  -1.0445  -1.0236
 -0.9993  -0.9507  -0.9131  -0.8952  -0.7972  -0.7661  -0.7218  -0.6943
 -0.6591  -0.6172  -0.5860  -0.5831  -0.5778  -0.5698  -0.5518  -0.5340
 -0.5238  -0.5208  -0.5122  -0.4952  -0.4792  -0.4641  -0.4463  -0.3706
 -0.3422  -0.3385  -0.2639

          Ground-State Mulliken Net Atomic Charges

     Atom                 Charge (a.u.)
  ----------------------------------------
      1 C                    -0.225830
      2 C                    -0.249748
      3 C                     0.042563
      4 H                     0.183363
      5 C                    -0.024328
      6 S                    -0.009758
      7 C                    -0.313627
      8 H                     0.112062
      9 H                     0.115222
     10 H                     0.114138
     11 H                     0.203954
     12 C                    -0.000819
     13 C                    -0.217524
     14 C                     0.026577
     15 H                     0.181092
     16 C                    -0.230705
     17 S                     0.040464
     18 C                    -0.266924
     19 H                     0.103257
     20 H                     0.108524
     21 H                     0.107737
     22 H                     0.200309
  ----------------------------------------
  Sum of atomic charges =     0.000000

                    Cartesian Multipole Moments
 -----------------------------------------------------------------
    Charge (ESU x 10^10)
                -0.0000
    Dipole Moment (Debye)
         X       1.4885      Y       1.0689      Z      -0.1431
       Tot       1.8381
    Quadrupole Moments (Debye-Ang)
        XX     -89.3335     XY       3.2050     YY     -73.7112
        XZ      -0.1670     YZ       3.1643     ZZ     -79.8776

 Total job time:  588.58s(wall), 584.26s(cpu)
        *  Thank you very much for using Q-Chem.  Have a nice day.  *
