 Q-Chem 5.4, Q-Chem, Inc., Pleasanton, CA (2021)
 Q-Chem 5.4.0 for Intel X86 EM64T Linux

User input:
--------------------------------------------------------------
$molecule
0 1
C	-0.135301	-3.866725	0.763228
C	0.106073	-3.703963	-0.603311
C	0.185286	-2.357056	-1.050423
H	0.225783	-4.561092	-1.283188
C	-0.000000	-1.440664	-0.000000
S	-0.268187	-2.286957	1.521021
C	0.438209	-1.978743	-2.483507
H	0.550153	-2.878678	-3.118798
H	1.363906	-1.376015	-2.593381
H	-0.393798	-1.375728	-2.903516
H	-0.239740	-4.783437	1.354194
C	0.000000	0.000000	0.000000
C	0.365003	0.782674	1.099446
C	0.949885	2.036912	0.776721
H	0.209135	0.448431	2.136088
C	1.043159	2.236886	-0.612546
S	0.398297	0.854094	-1.486809
C	1.409609	3.022738	1.814609
H	1.229726	2.636980	2.836676
H	0.877346	3.992870	1.726239
H	2.494910	3.238558	1.726228
H	1.444334	3.097160	-1.161575
$end

$rem
JOBTYPE		SP
EXCHANGE	HF
CORRELATION	pRIMP2
BASIS		cc-pvtz
METHOD		rimp2
AUX_BASIS	rimp2-cc-pvtz
SOLVENT_METHOD	PCM
PURECART	11111
SYMMETRY	false
MEM_TOTAL	110000
SCF_CONVERGENCE = 6
THRESH=10
$end

$solvent
dielectric 4.90
$end
--------------------------------------------------------------

             Standard Nuclear Orientation (Angstroms)
    I     Atom           X                Y                Z
 ----------------------------------------------------------------
    1      C      -0.1353010000    -3.8667250000     0.7632280000
    2      C       0.1060730000    -3.7039630000    -0.6033110000
    3      C       0.1852860000    -2.3570560000    -1.0504230000
    4      H       0.2257830000    -4.5610920000    -1.2831880000
    5      C       0.0000000000    -1.4406640000     0.0000000000
    6      S      -0.2681870000    -2.2869570000     1.5210210000
    7      C       0.4382090000    -1.9787430000    -2.4835070000
    8      H       0.5501530000    -2.8786780000    -3.1187980000
    9      H       1.3639060000    -1.3760150000    -2.5933810000
   10      H      -0.3937980000    -1.3757280000    -2.9035160000
   11      H      -0.2397400000    -4.7834370000     1.3541940000
   12      C       0.0000000000     0.0000000000     0.0000000000
   13      C       0.3650030000     0.7826740000     1.0994460000
   14      C       0.9498850000     2.0369120000     0.7767210000
   15      H       0.2091350000     0.4484310000     2.1360880000
   16      C       1.0431590000     2.2368860000    -0.6125460000
   17      S       0.3982970000     0.8540940000    -1.4868090000
   18      C       1.4096090000     3.0227380000     1.8146090000
   19      H       1.2297260000     2.6369800000     2.8366760000
   20      H       0.8773460000     3.9928700000     1.7262390000
   21      H       2.4949100000     3.2385580000     1.7262280000
   22      H       1.4443340000     3.0971600000    -1.1615750000
 ----------------------------------------------------------------

   10   -1179.6712494321      5.27e-07  Convergence criterion met
 Total energy in the final basis set =    -1179.6712494321
        RIMP2         total energy =     -1181.6559051726 a.u.

                    Orbital Energies (a.u.)
 --------------------------------------------------------------

 Alpha MOs
 -- Occupied --
-91.9842 -91.9824 -11.2805 -11.2787 -11.2698 -11.2658 -11.2524 -11.2504
-11.2434 -11.2424 -11.2291 -11.2282  -8.9843  -8.9825  -6.6651  -6.6645
 -6.6639  -6.6634  -6.6629  -6.6622  -1.1826  -1.1493  -1.0430  -1.0247
 -0.9987  -0.9521  -0.9139  -0.8953  -0.7988  -0.7653  -0.7205  -0.6957
 -0.6616  -0.6159  -0.5845  -0.5821  -0.5778  -0.5696  -0.5524  -0.5338
 -0.5235  -0.5212  -0.5122  -0.4960  -0.4850  -0.4659  -0.4489  -0.3711
 -0.3423  -0.3393  -0.2667

          Ground-State Mulliken Net Atomic Charges

     Atom                 Charge (a.u.)
  ----------------------------------------
      1 C                    -0.216000
      2 C                    -0.250774
      3 C                     0.048925
      4 H                     0.184639
      5 C                    -0.032212
      6 S                     0.001448
      7 C                    -0.315172
      8 H                     0.114410
      9 H                     0.118703
     10 H                     0.111929
     11 H                     0.205965
     12 C                     0.037708
     13 C                    -0.247673
     14 C                     0.031750
     15 H                     0.178127
     16 C                    -0.247082
     17 S                     0.025440
     18 C                    -0.269002
     19 H                     0.102918
     20 H                     0.108577
     21 H                     0.108053
     22 H                     0.199323
  ----------------------------------------
  Sum of atomic charges =     0.000000

                    Cartesian Multipole Moments
 -----------------------------------------------------------------
    Charge (ESU x 10^10)
                -0.0000
    Dipole Moment (Debye)
         X       1.1783      Y       0.3388      Z      -0.1703
       Tot       1.2378
    Quadrupole Moments (Debye-Ang)
        XX     -90.4922     XY       3.7889     YY     -71.4404
        XZ      -0.8198     YZ       3.1727     ZZ     -80.0525

 Total job time:  565.75s(wall), 563.45s(cpu)
        *  Thank you very much for using Q-Chem.  Have a nice day.  *
