 Q-Chem 5.4, Q-Chem, Inc., Pleasanton, CA (2021)
 Q-Chem 5.4.0 for Intel X86 EM64T Linux

User input:
--------------------------------------------------------------
$molecule
0 1
C	0.728625	-3.866725	-0.264439
C	-0.575519	-3.703963	0.209794
C	-1.002336	-2.357056	0.364749
H	-1.224165	-4.561092	0.446060
C	0.000000	-1.440664	0.000000
S	1.451336	-2.286957	-0.528253
C	-2.369885	-1.978743	0.862253
H	-2.976034	-2.878678	1.082953
H	-2.927887	-1.376015	0.115513
H	-2.317620	-1.375728	1.792797
H	1.292636	-4.783437	-0.469476
C	0.000000	0.000000	0.000000
C	0.747916	0.431772	1.099446
C	1.946425	1.123709	0.776721
H	0.428523	0.247378	2.136088
C	2.137531	1.234018	-0.612546
S	0.816154	0.471179	-1.486809
C	2.888455	1.667564	1.814609
H	2.519842	1.454746	2.836676
H	3.008896	2.767543	1.726239
H	3.901271	1.221850	1.726228
H	2.959587	1.708609	-1.161575
$end

$rem
JOBTYPE		SP
EXCHANGE	HF
CORRELATION	pRIMP2
BASIS		cc-pvtz
METHOD		rimp2
AUX_BASIS	rimp2-cc-pvtz
SOLVENT_METHOD	PCM
PURECART	11111
SYMMETRY	false
MEM_TOTAL	110000
SCF_CONVERGENCE = 6
THRESH=10
$end

$solvent
dielectric 4.90
$end
--------------------------------------------------------------

             Standard Nuclear Orientation (Angstroms)
    I     Atom           X                Y                Z
 ----------------------------------------------------------------
    1      C       0.7286250000    -3.8667250000    -0.2644390000
    2      C      -0.5755190000    -3.7039630000     0.2097940000
    3      C      -1.0023360000    -2.3570560000     0.3647490000
    4      H      -1.2241650000    -4.5610920000     0.4460600000
    5      C       0.0000000000    -1.4406640000     0.0000000000
    6      S       1.4513360000    -2.2869570000    -0.5282530000
    7      C      -2.3698850000    -1.9787430000     0.8622530000
    8      H      -2.9760340000    -2.8786780000     1.0829530000
    9      H      -2.9278870000    -1.3760150000     0.1155130000
   10      H      -2.3176200000    -1.3757280000     1.7927970000
   11      H       1.2926360000    -4.7834370000    -0.4694760000
   12      C       0.0000000000     0.0000000000     0.0000000000
   13      C       0.7479160000     0.4317720000     1.0994460000
   14      C       1.9464250000     1.1237090000     0.7767210000
   15      H       0.4285230000     0.2473780000     2.1360880000
   16      C       2.1375310000     1.2340180000    -0.6125460000
   17      S       0.8161540000     0.4711790000    -1.4868090000
   18      C       2.8884550000     1.6675640000     1.8146090000
   19      H       2.5198420000     1.4547460000     2.8366760000
   20      H       3.0088960000     2.7675430000     1.7262390000
   21      H       3.9012710000     1.2218500000     1.7262280000
   22      H       2.9595870000     1.7086090000    -1.1615750000
 ----------------------------------------------------------------

   10   -1179.6116331807      8.84e-07  Convergence criterion met
 Total energy in the final basis set =    -1179.6116331807
        RIMP2         total energy =     -1181.6061097994 a.u.

                    Orbital Energies (a.u.)
 --------------------------------------------------------------

 Alpha MOs
 -- Occupied --
-91.9833 -91.9722 -11.2917 -11.2714 -11.2667 -11.2599 -11.2538 -11.2512
-11.2362 -11.2340 -11.2313 -11.2244  -8.9841  -8.9728  -6.6648  -6.6639
 -6.6637  -6.6537  -6.6530  -6.6524  -1.1925  -1.1438  -1.0466  -1.0167
 -1.0001  -0.9518  -0.9099  -0.8901  -0.7985  -0.7475  -0.7415  -0.6904
 -0.6547  -0.6225  -0.5883  -0.5790  -0.5679  -0.5671  -0.5480  -0.5349
 -0.5329  -0.5156  -0.5068  -0.4889  -0.4737  -0.4596  -0.4495  -0.3655
 -0.3338  -0.3155  -0.2826

          Ground-State Mulliken Net Atomic Charges

     Atom                 Charge (a.u.)
  ----------------------------------------
      1 C                    -0.242709
      2 C                    -0.245568
      3 C                     0.026035
      4 H                     0.179525
      5 C                    -0.040203
      6 S                     0.013256
      7 C                    -0.284225
      8 H                     0.104832
      9 H                     0.107406
     10 H                     0.103982
     11 H                     0.200735
     12 C                    -0.129963
     13 C                    -0.086581
     14 C                    -0.020760
     15 H                     0.190039
     16 C                    -0.168086
     17 S                     0.039461
     18 C                    -0.267249
     19 H                     0.103358
     20 H                     0.107974
     21 H                     0.106311
     22 H                     0.202429
  ----------------------------------------
  Sum of atomic charges =     0.000000

                    Cartesian Multipole Moments
 -----------------------------------------------------------------
    Charge (ESU x 10^10)
                -0.0000
    Dipole Moment (Debye)
         X       1.6542      Y       1.0735      Z       2.0507
       Tot       2.8451
    Quadrupole Moments (Debye-Ang)
        XX     -77.8303     XY       7.8108     YY     -80.9269
        XZ      -1.4037     YZ      -0.3033     ZZ     -84.7742

 Total job time:  586.68s(wall), 582.83s(cpu)
        *  Thank you very much for using Q-Chem.  Have a nice day.  *
