 Q-Chem 5.4, Q-Chem, Inc., Pleasanton, CA (2021)
 Q-Chem 5.4.0 for Intel X86 EM64T Linux

User input:
--------------------------------------------------------------
$molecule
0 1
C	0.135301	-3.866725	-0.763228
C	-0.106073	-3.703963	0.603311
C	-0.185286	-2.357056	1.050423
H	-0.225783	-4.561092	1.283188
C	0.000000	-1.440664	0.000000
S	0.268187	-2.286957	-1.521021
C	-0.438209	-1.978743	2.483507
H	-0.550153	-2.878678	3.118798
H	-1.363906	-1.376015	2.593381
H	0.393798	-1.375728	2.903516
H	0.239740	-4.783437	-1.354194
C	0.000000	0.000000	0.000000
C	0.747916	0.431772	1.099446
C	1.946425	1.123709	0.776721
H	0.428523	0.247378	2.136088
C	2.137531	1.234018	-0.612546
S	0.816154	0.471179	-1.486809
C	2.888455	1.667564	1.814609
H	2.519842	1.454746	2.836676
H	3.008896	2.767543	1.726239
H	3.901271	1.221850	1.726228
H	2.959587	1.708609	-1.161575
$end

$rem
JOBTYPE		SP
EXCHANGE	HF
CORRELATION	pRIMP2
BASIS		cc-pvtz
METHOD		rimp2
AUX_BASIS	rimp2-cc-pvtz
SOLVENT_METHOD	PCM
PURECART	11111
SYMMETRY	false
MEM_TOTAL	110000
SCF_CONVERGENCE = 6
THRESH=10
$end

$solvent
dielectric 4.90
$end
--------------------------------------------------------------

             Standard Nuclear Orientation (Angstroms)
    I     Atom           X                Y                Z
 ----------------------------------------------------------------
    1      C       0.1353010000    -3.8667250000    -0.7632280000
    2      C      -0.1060730000    -3.7039630000     0.6033110000
    3      C      -0.1852860000    -2.3570560000     1.0504230000
    4      H      -0.2257830000    -4.5610920000     1.2831880000
    5      C       0.0000000000    -1.4406640000     0.0000000000
    6      S       0.2681870000    -2.2869570000    -1.5210210000
    7      C      -0.4382090000    -1.9787430000     2.4835070000
    8      H      -0.5501530000    -2.8786780000     3.1187980000
    9      H      -1.3639060000    -1.3760150000     2.5933810000
   10      H       0.3937980000    -1.3757280000     2.9035160000
   11      H       0.2397400000    -4.7834370000    -1.3541940000
   12      C       0.0000000000     0.0000000000     0.0000000000
   13      C       0.7479160000     0.4317720000     1.0994460000
   14      C       1.9464250000     1.1237090000     0.7767210000
   15      H       0.4285230000     0.2473780000     2.1360880000
   16      C       2.1375310000     1.2340180000    -0.6125460000
   17      S       0.8161540000     0.4711790000    -1.4868090000
   18      C       2.8884550000     1.6675640000     1.8146090000
   19      H       2.5198420000     1.4547460000     2.8366760000
   20      H       3.0088960000     2.7675430000     1.7262390000
   21      H       3.9012710000     1.2218500000     1.7262280000
   22      H       2.9595870000     1.7086090000    -1.1615750000
 ----------------------------------------------------------------

   11   -1179.6034137321      6.05e-07  Convergence criterion met
 Total energy in the final basis set =    -1179.6034137321
        RIMP2         total energy =     -1181.6008369110 a.u.

                    Orbital Energies (a.u.)
 --------------------------------------------------------------

 Alpha MOs
 -- Occupied --
-91.9854 -91.9738 -11.2955 -11.2802 -11.2693 -11.2582 -11.2573 -11.2504
-11.2359 -11.2330 -11.2294 -11.2261  -8.9866  -8.9743  -6.6673  -6.6665
 -6.6662  -6.6552  -6.6544  -6.6538  -1.1961  -1.1443  -1.0496  -1.0246
 -0.9975  -0.9547  -0.9099  -0.8940  -0.8017  -0.7586  -0.7300  -0.7007
 -0.6525  -0.6190  -0.6010  -0.5831  -0.5705  -0.5584  -0.5499  -0.5436
 -0.5354  -0.5181  -0.5062  -0.4873  -0.4849  -0.4585  -0.4397  -0.3732
 -0.3493  -0.3257  -0.2600

          Ground-State Mulliken Net Atomic Charges

     Atom                 Charge (a.u.)
  ----------------------------------------
      1 C                    -0.266465
      2 C                    -0.240379
      3 C                     0.013686
      4 H                     0.179469
      5 C                    -0.001834
      6 S                    -0.001472
      7 C                    -0.302597
      8 H                     0.111796
      9 H                     0.109321
     10 H                     0.091799
     11 H                     0.198894
     12 C                    -0.110690
     13 C                    -0.095723
     14 C                    -0.028436
     15 H                     0.203704
     16 C                    -0.157756
     17 S                     0.037108
     18 C                    -0.266527
     19 H                     0.102894
     20 H                     0.109509
     21 H                     0.107692
     22 H                     0.206008
  ----------------------------------------
  Sum of atomic charges =     0.000000

                    Cartesian Multipole Moments
 -----------------------------------------------------------------
    Charge (ESU x 10^10)
                -0.0000
    Dipole Moment (Debye)
         X       2.9378      Y       1.7217      Z       2.9155
       Tot       4.4827
    Quadrupole Moments (Debye-Ang)
        XX     -82.1049     XY       6.3467     YY     -82.7543
        XZ      -0.5898     YZ      -1.8550     ZZ     -80.0712

 Total job time:  652.48s(wall), 648.39s(cpu)
        *  Thank you very much for using Q-Chem.  Have a nice day.  *
