 Q-Chem 5.4, Q-Chem, Inc., Pleasanton, CA (2021)
 Q-Chem 5.4.0 for Intel X86 EM64T Linux

User input:
--------------------------------------------------------------
$molecule
0 1
C	-0.728138	-3.866725	-0.265779
C	0.575726	-3.703963	0.209225
C	1.002290	-2.357056	0.364875
H	1.224486	-4.561092	0.445176
C	-0.000000	-1.440664	-0.000000
S	-1.451343	-2.286957	-0.528236
C	2.369683	-1.978743	0.862808
H	2.975883	-2.878678	1.083368
H	2.317142	-1.376015	1.793522
H	2.927787	-1.375728	0.116375
H	-1.291990	-4.783437	-0.471251
C	0.000000	0.000000	0.000000
C	0.365003	0.782674	1.099446
C	0.949885	2.036912	0.776721
H	0.209135	0.448431	2.136088
C	1.043159	2.236886	-0.612546
S	0.398297	0.854094	-1.486809
C	1.409609	3.022738	1.814609
H	1.229726	2.636980	2.836676
H	0.877346	3.992870	1.726239
H	2.494910	3.238558	1.726228
H	1.444334	3.097160	-1.161575
$end

$rem
JOBTYPE		SP
EXCHANGE	HF
CORRELATION	pRIMP2
BASIS		cc-pvtz
METHOD		rimp2
AUX_BASIS	rimp2-cc-pvtz
SOLVENT_METHOD	PCM
PURECART	11111
SYMMETRY	false
MEM_TOTAL	110000
SCF_CONVERGENCE = 6
THRESH=10
$end

$solvent
dielectric 4.90
$end
--------------------------------------------------------------

             Standard Nuclear Orientation (Angstroms)
    I     Atom           X                Y                Z
 ----------------------------------------------------------------
    1      C      -0.7281380000    -3.8667250000    -0.2657790000
    2      C       0.5757260000    -3.7039630000     0.2092250000
    3      C       1.0022900000    -2.3570560000     0.3648750000
    4      H       1.2244860000    -4.5610920000     0.4451760000
    5      C       0.0000000000    -1.4406640000     0.0000000000
    6      S      -1.4513430000    -2.2869570000    -0.5282360000
    7      C       2.3696830000    -1.9787430000     0.8628080000
    8      H       2.9758830000    -2.8786780000     1.0833680000
    9      H       2.3171420000    -1.3760150000     1.7935220000
   10      H       2.9277870000    -1.3757280000     0.1163750000
   11      H      -1.2919900000    -4.7834370000    -0.4712510000
   12      C       0.0000000000     0.0000000000     0.0000000000
   13      C       0.3650030000     0.7826740000     1.0994460000
   14      C       0.9498850000     2.0369120000     0.7767210000
   15      H       0.2091350000     0.4484310000     2.1360880000
   16      C       1.0431590000     2.2368860000    -0.6125460000
   17      S       0.3982970000     0.8540940000    -1.4868090000
   18      C       1.4096090000     3.0227380000     1.8146090000
   19      H       1.2297260000     2.6369800000     2.8366760000
   20      H       0.8773460000     3.9928700000     1.7262390000
   21      H       2.4949100000     3.2385580000     1.7262280000
   22      H       1.4443340000     3.0971600000    -1.1615750000
 ----------------------------------------------------------------

   10   -1179.6744747232      5.62e-07  Convergence criterion met
 Total energy in the final basis set =    -1179.6744747232
        RIMP2         total energy =     -1181.6563520145 a.u.

                    Orbital Energies (a.u.)
 --------------------------------------------------------------

 Alpha MOs
 -- Occupied --
-91.9849 -91.9816 -11.2738 -11.2727 -11.2707 -11.2691 -11.2526 -11.2515
-11.2456 -11.2413 -11.2296 -11.2286  -8.9845  -8.9815  -6.6654  -6.6648
 -6.6642  -6.6624  -6.6618  -6.6612  -1.1796  -1.1491  -1.0408  -1.0222
 -0.9969  -0.9544  -0.9129  -0.8921  -0.7993  -0.7522  -0.7328  -0.6962
 -0.6607  -0.6162  -0.5831  -0.5799  -0.5715  -0.5674  -0.5513  -0.5328
 -0.5284  -0.5214  -0.5097  -0.4910  -0.4816  -0.4648  -0.4599  -0.3440
 -0.3402  -0.3290  -0.2952

          Ground-State Mulliken Net Atomic Charges

     Atom                 Charge (a.u.)
  ----------------------------------------
      1 C                    -0.213176
      2 C                    -0.251919
      3 C                     0.070676
      4 H                     0.183811
      5 C                    -0.035584
      6 S                     0.021433
      7 C                    -0.282204
      8 H                     0.110476
      9 H                     0.108761
     10 H                     0.114326
     11 H                     0.203744
     12 C                    -0.045191
     13 C                    -0.258612
     14 C                     0.041443
     15 H                     0.190986
     16 C                    -0.236141
     17 S                     0.029079
     18 C                    -0.269667
     19 H                     0.102713
     20 H                     0.108522
     21 H                     0.107580
     22 H                     0.198944
  ----------------------------------------
  Sum of atomic charges =     0.000000

                    Cartesian Multipole Moments
 -----------------------------------------------------------------
    Charge (ESU x 10^10)
                -0.0000
    Dipole Moment (Debye)
         X       2.3683      Y       0.4173      Z       2.0254
       Tot       3.1441
    Quadrupole Moments (Debye-Ang)
        XX     -85.0793     XY       2.2117     YY     -71.0203
        XZ       2.4705     YZ       0.1235     ZZ     -85.8748

 Total job time:  570.78s(wall), 567.51s(cpu)
        *  Thank you very much for using Q-Chem.  Have a nice day.  *
