 Q-Chem 5.4, Q-Chem, Inc., Pleasanton, CA (2021)
 Q-Chem 5.4.0 for Intel X86 EM64T Linux

User input:
--------------------------------------------------------------
$molecule
0 1
C	-0.671636	-3.866725	0.386946
C	0.530345	-3.703963	-0.306544
C	0.923770	-2.357056	-0.533261
H	1.128109	-4.561092	-0.651857
C	-0.000000	-1.440664	-0.000000
S	-1.337557	-2.286957	0.772250
C	2.184153	-1.978743	-1.260680
H	2.742769	-2.878678	-1.583283
H	2.863347	-1.376015	-0.622180
H	1.971094	-1.375728	-2.168011
H	-1.191474	-4.783437	0.686807
C	0.000000	0.000000	0.000000
C	0.075300	0.860311	1.099446
C	0.195935	2.238951	0.776721
H	0.043151	0.492916	2.136088
C	0.215188	2.458766	-0.612546
S	0.082160	0.938811	-1.486809
C	0.290762	3.322559	1.814609
H	0.253664	2.898542	2.836676
H	-0.541206	4.052140	1.726239
H	1.236797	3.896558	1.726228
H	0.297938	3.404370	-1.161575
$end

$rem
JOBTYPE		SP
EXCHANGE	HF
CORRELATION	pRIMP2
BASIS		cc-pvtz
METHOD		rimp2
AUX_BASIS	rimp2-cc-pvtz
SOLVENT_METHOD	PCM
PURECART	11111
SYMMETRY	false
MEM_TOTAL	110000
SCF_CONVERGENCE = 6
THRESH=10
$end

$solvent
dielectric 4.90
$end
--------------------------------------------------------------

             Standard Nuclear Orientation (Angstroms)
    I     Atom           X                Y                Z
 ----------------------------------------------------------------
    1      C      -0.6716360000    -3.8667250000     0.3869460000
    2      C       0.5303450000    -3.7039630000    -0.3065440000
    3      C       0.9237700000    -2.3570560000    -0.5332610000
    4      H       1.1281090000    -4.5610920000    -0.6518570000
    5      C       0.0000000000    -1.4406640000     0.0000000000
    6      S      -1.3375570000    -2.2869570000     0.7722500000
    7      C       2.1841530000    -1.9787430000    -1.2606800000
    8      H       2.7427690000    -2.8786780000    -1.5832830000
    9      H       2.8633470000    -1.3760150000    -0.6221800000
   10      H       1.9710940000    -1.3757280000    -2.1680110000
   11      H      -1.1914740000    -4.7834370000     0.6868070000
   12      C       0.0000000000     0.0000000000     0.0000000000
   13      C       0.0753000000     0.8603110000     1.0994460000
   14      C       0.1959350000     2.2389510000     0.7767210000
   15      H       0.0431510000     0.4929160000     2.1360880000
   16      C       0.2151880000     2.4587660000    -0.6125460000
   17      S       0.0821600000     0.9388110000    -1.4868090000
   18      C       0.2907620000     3.3225590000     1.8146090000
   19      H       0.2536640000     2.8985420000     2.8366760000
   20      H      -0.5412060000     4.0521400000     1.7262390000
   21      H       1.2367970000     3.8965580000     1.7262280000
   22      H       0.2979380000     3.4043700000    -1.1615750000
 ----------------------------------------------------------------

   10   -1179.6857703764      5.04e-07  Convergence criterion met
 Total energy in the final basis set =    -1179.6857703764
        RIMP2         total energy =     -1181.6643183391 a.u.

                    Orbital Energies (a.u.)
 --------------------------------------------------------------

 Alpha MOs
 -- Occupied --
-91.9854 -91.9850 -11.2801 -11.2744 -11.2719 -11.2647 -11.2534 -11.2512
-11.2423 -11.2423 -11.2290 -11.2288  -8.9849  -8.9846  -6.6658  -6.6655
 -6.6652  -6.6650  -6.6646  -6.6643  -1.1791  -1.1497  -1.0406  -1.0230
 -0.9982  -0.9534  -0.9140  -0.8925  -0.8004  -0.7584  -0.7264  -0.6949
 -0.6624  -0.6163  -0.5826  -0.5782  -0.5738  -0.5696  -0.5520  -0.5327
 -0.5275  -0.5196  -0.5088  -0.4936  -0.4876  -0.4663  -0.4593  -0.3471
 -0.3430  -0.3338  -0.2886

          Ground-State Mulliken Net Atomic Charges

     Atom                 Charge (a.u.)
  ----------------------------------------
      1 C                    -0.216477
      2 C                    -0.247819
      3 C                     0.034148
      4 H                     0.184463
      5 C                    -0.029190
      6 S                     0.024828
      7 C                    -0.286498
      8 H                     0.109199
      9 H                     0.112860
     10 H                     0.111283
     11 H                     0.204571
     12 C                    -0.005089
     13 C                    -0.236968
     14 C                     0.019777
     15 H                     0.188182
     16 C                    -0.237753
     17 S                     0.024486
     18 C                    -0.271085
     19 H                     0.102846
     20 H                     0.108292
     21 H                     0.107989
     22 H                     0.197955
  ----------------------------------------
  Sum of atomic charges =     0.000000

                    Cartesian Multipole Moments
 -----------------------------------------------------------------
    Charge (ESU x 10^10)
                -0.0000
    Dipole Moment (Debye)
         X       1.4735      Y       0.2644      Z       0.6647
       Tot       1.6380
    Quadrupole Moments (Debye-Ang)
        XX     -87.7530     XY      -0.8753     YY     -68.9137
        XZ      -2.8062     YZ       2.0993     ZZ     -85.0173

 Total job time:  552.85s(wall), 549.33s(cpu)
        *  Thank you very much for using Q-Chem.  Have a nice day.  *
