 Q-Chem 5.4, Q-Chem, Inc., Pleasanton, CA (2021)
 Q-Chem 5.4.0 for Intel X86 EM64T Linux

User input:
--------------------------------------------------------------
$molecule
0 1
C	0.670924	-3.866725	0.388181
C	-0.530648	-3.703963	-0.306020
C	-0.923703	-2.357056	-0.533378
H	-1.128579	-4.561092	-0.651043
C	0.000000	-1.440664	0.000000
S	1.337567	-2.286957	0.772234
C	-2.183857	-1.978743	-1.261192
H	-2.742548	-2.878678	-1.583666
H	-1.970497	-1.376015	-2.168641
H	-2.863099	-1.375728	-0.623012
H	1.190530	-4.783437	0.688443
C	0.000000	0.000000	0.000000
C	0.295399	0.811508	1.099446
C	0.768742	2.111949	0.776721
H	0.169256	0.464952	2.136088
C	0.844232	2.319291	-0.612546
S	0.322342	0.885558	-1.486809
C	1.140796	3.134091	1.814609
H	0.995218	2.734123	2.836676
H	0.526006	4.054142	1.726239
H	2.203157	3.443680	1.726228
H	1.168902	3.211257	-1.161575
$end

$rem
JOBTYPE		SP
EXCHANGE	HF
CORRELATION	pRIMP2
BASIS		cc-pvtz
METHOD		rimp2
AUX_BASIS	rimp2-cc-pvtz
SOLVENT_METHOD	PCM
PURECART	11111
SYMMETRY	false
MEM_TOTAL	110000
SCF_CONVERGENCE = 6
THRESH=10
$end

$solvent
dielectric 4.90
$end
--------------------------------------------------------------

             Standard Nuclear Orientation (Angstroms)
    I     Atom           X                Y                Z
 ----------------------------------------------------------------
    1      C       0.6709240000    -3.8667250000     0.3881810000
    2      C      -0.5306480000    -3.7039630000    -0.3060200000
    3      C      -0.9237030000    -2.3570560000    -0.5333780000
    4      H      -1.1285790000    -4.5610920000    -0.6510430000
    5      C       0.0000000000    -1.4406640000     0.0000000000
    6      S       1.3375670000    -2.2869570000     0.7722340000
    7      C      -2.1838570000    -1.9787430000    -1.2611920000
    8      H      -2.7425480000    -2.8786780000    -1.5836660000
    9      H      -1.9704970000    -1.3760150000    -2.1686410000
   10      H      -2.8630990000    -1.3757280000    -0.6230120000
   11      H       1.1905300000    -4.7834370000     0.6884430000
   12      C       0.0000000000     0.0000000000     0.0000000000
   13      C       0.2953990000     0.8115080000     1.0994460000
   14      C       0.7687420000     2.1119490000     0.7767210000
   15      H       0.1692560000     0.4649520000     2.1360880000
   16      C       0.8442320000     2.3192910000    -0.6125460000
   17      S       0.3223420000     0.8855580000    -1.4868090000
   18      C       1.1407960000     3.1340910000     1.8146090000
   19      H       0.9952180000     2.7341230000     2.8366760000
   20      H       0.5260060000     4.0541420000     1.7262390000
   21      H       2.2031570000     3.4436800000     1.7262280000
   22      H       1.1689020000     3.2112570000    -1.1615750000
 ----------------------------------------------------------------

   10   -1179.6801518146      5.08e-07  Convergence criterion met
 Total energy in the final basis set =    -1179.6801518146
        RIMP2         total energy =     -1181.6597753905 a.u.

                    Orbital Energies (a.u.)
 --------------------------------------------------------------

 Alpha MOs
 -- Occupied --
-91.9848 -91.9848 -11.2772 -11.2729 -11.2713 -11.2670 -11.2515 -11.2514
-11.2436 -11.2415 -11.2292 -11.2291  -8.9845  -8.9843  -6.6654  -6.6652
 -6.6648  -6.6646  -6.6642  -6.6640  -1.1797  -1.1494  -1.0407  -1.0229
 -0.9983  -0.9523  -0.9143  -0.8922  -0.8000  -0.7582  -0.7268  -0.6932
 -0.6620  -0.6166  -0.5829  -0.5790  -0.5730  -0.5694  -0.5517  -0.5335
 -0.5270  -0.5190  -0.5079  -0.4937  -0.4853  -0.4664  -0.4601  -0.3451
 -0.3410  -0.3366  -0.2882

          Ground-State Mulliken Net Atomic Charges

     Atom                 Charge (a.u.)
  ----------------------------------------
      1 C                    -0.211664
      2 C                    -0.249745
      3 C                     0.038611
      4 H                     0.183464
      5 C                    -0.032977
      6 S                     0.025927
      7 C                    -0.285371
      8 H                     0.107860
      9 H                     0.109035
     10 H                     0.111273
     11 H                     0.204436
     12 C                     0.014902
     13 C                    -0.287980
     14 C                     0.046334
     15 H                     0.189435
     16 C                    -0.239863
     17 S                     0.028915
     18 C                    -0.269977
     19 H                     0.102957
     20 H                     0.107864
     21 H                     0.108566
     22 H                     0.198002
  ----------------------------------------
  Sum of atomic charges =     0.000000

                    Cartesian Multipole Moments
 -----------------------------------------------------------------
    Charge (ESU x 10^10)
                -0.0000
    Dipole Moment (Debye)
         X      -0.5858      Y       0.3015      Z       0.7017
       Tot       0.9625
    Quadrupole Moments (Debye-Ang)
        XX     -86.4914     XY       5.4129     YY     -70.1090
        XZ       3.2257     YZ       2.0224     ZZ     -84.9952

 Total job time:  545.92s(wall), 542.78s(cpu)
        *  Thank you very much for using Q-Chem.  Have a nice day.  *
