 Q-Chem 5.4, Q-Chem, Inc., Pleasanton, CA (2021)
 Q-Chem 5.4.0 for Intel X86 EM64T Linux

User input:
--------------------------------------------------------------
$molecule
0 1
C	0.336297	-3.852073	0.775127
C	0.322520	-3.689895	-0.612565
C	0.205498	-2.348081	-1.066639
H	0.397057	-4.543777	-1.302900
C	0.125562	-1.435182	0.000000
S	0.199331	-2.278254	1.544483
C	0.172753	-1.971188	-2.521872
H	0.251114	-2.867704	-3.166949
H	1.009380	-1.292962	-2.790821
H	-0.768708	-1.448236	-2.791023
H	0.415963	-4.765317	1.375251
C	0.000000	0.000000	0.000000
C	0.000033	0.863600	1.099446
C	0.000052	2.247508	0.776721
H	0.000026	0.494801	2.136088
C	0.000074	2.468165	-0.612546
S	0.000024	0.942399	-1.486809
C	0.000075	3.335257	1.814609
H	0.000074	2.909620	2.836676
H	-0.892314	3.989552	1.726239
H	0.892483	3.989525	1.726228
H	0.000094	3.417382	-1.161575
$end

$rem
JOBTYPE		SP
EXCHANGE	HF
CORRELATION	pRIMP2
BASIS		cc-pvtz
METHOD		rimp2
AUX_BASIS	rimp2-cc-pvtz
SOLVENT_METHOD	PCM
PURECART	11111
SYMMETRY	false
MEM_TOTAL	110000
SCF_CONVERGENCE = 6
THRESH=10
$end

$solvent
dielectric 4.90
$end
--------------------------------------------------------------

             Standard Nuclear Orientation (Angstroms)
    I     Atom           X                Y                Z
 ----------------------------------------------------------------
    1      C       0.3362970000    -3.8520730000     0.7751270000
    2      C       0.3225200000    -3.6898950000    -0.6125650000
    3      C       0.2054980000    -2.3480810000    -1.0666390000
    4      H       0.3970570000    -4.5437770000    -1.3029000000
    5      C       0.1255620000    -1.4351820000     0.0000000000
    6      S       0.1993310000    -2.2782540000     1.5444830000
    7      C       0.1727530000    -1.9711880000    -2.5218720000
    8      H       0.2511140000    -2.8677040000    -3.1669490000
    9      H       1.0093800000    -1.2929620000    -2.7908210000
   10      H      -0.7687080000    -1.4482360000    -2.7910230000
   11      H       0.4159630000    -4.7653170000     1.3752510000
   12      C       0.0000000000     0.0000000000     0.0000000000
   13      C       0.0000330000     0.8636000000     1.0994460000
   14      C       0.0000520000     2.2475080000     0.7767210000
   15      H       0.0000260000     0.4948010000     2.1360880000
   16      C       0.0000740000     2.4681650000    -0.6125460000
   17      S       0.0000240000     0.9423990000    -1.4868090000
   18      C       0.0000750000     3.3352570000     1.8146090000
   19      H       0.0000740000     2.9096200000     2.8366760000
   20      H      -0.8923140000     3.9895520000     1.7262390000
   21      H       0.8924830000     3.9895250000     1.7262280000
   22      H       0.0000940000     3.4173820000    -1.1615750000
 ----------------------------------------------------------------

   10   -1179.6861302590      5.44e-07  Convergence criterion met
 Total energy in the final basis set =    -1179.6861302590
        RIMP2         total energy =     -1181.6666845991 a.u.

                    Orbital Energies (a.u.)
 --------------------------------------------------------------

 Alpha MOs
 -- Occupied --
-91.9852 -91.9849 -11.2845 -11.2786 -11.2734 -11.2613 -11.2547 -11.2522
-11.2439 -11.2393 -11.2306 -11.2288  -8.9849  -8.9848  -6.6658  -6.6658
 -6.6653  -6.6652  -6.6646  -6.6646  -1.1816  -1.1501  -1.0423  -1.0263
 -0.9989  -0.9525  -0.9154  -0.8953  -0.8006  -0.7658  -0.7193  -0.6962
 -0.6638  -0.6157  -0.5847  -0.5828  -0.5772  -0.5696  -0.5533  -0.5344
 -0.5231  -0.5213  -0.5116  -0.4964  -0.4910  -0.4676  -0.4504  -0.3717
 -0.3437  -0.3404  -0.2681

          Ground-State Mulliken Net Atomic Charges

     Atom                 Charge (a.u.)
  ----------------------------------------
      1 C                    -0.210923
      2 C                    -0.256397
      3 C                     0.052375
      4 H                     0.185167
      5 C                    -0.020780
      6 S                     0.005558
      7 C                    -0.323070
      8 H                     0.119189
      9 H                     0.115906
     10 H                     0.116130
     11 H                     0.208001
     12 C                     0.065114
     13 C                    -0.278069
     14 C                     0.037074
     15 H                     0.176154
     16 C                    -0.260904
     17 S                     0.021493
     18 C                    -0.271076
     19 H                     0.102759
     20 H                     0.108415
     21 H                     0.108743
     22 H                     0.199141
  ----------------------------------------
  Sum of atomic charges =     0.000000

                    Cartesian Multipole Moments
 -----------------------------------------------------------------
    Charge (ESU x 10^10)
                -0.0000
    Dipole Moment (Debye)
         X       0.1614      Y      -0.0005      Z      -0.1956
       Tot       0.2536
    Quadrupole Moments (Debye-Ang)
        XX     -92.6772     XY      -1.1795     YY     -68.5563
        XZ      -0.2101     YZ       3.3695     ZZ     -79.7839

 Total job time:  566.69s(wall), 560.35s(cpu)
        *  Thank you very much for using Q-Chem.  Have a nice day.  *
