 Q-Chem 5.4, Q-Chem, Inc., Pleasanton, CA (2021)
 Q-Chem 5.4.0 for Intel X86 EM64T Linux

User input:
--------------------------------------------------------------
$molecule
0 1
C	0.388181	-3.866725	-0.670924
C	-0.306020	-3.703963	0.530648
C	-0.533378	-2.357056	0.923703
H	-0.651043	-4.561092	1.128579
C	0.000000	-1.440664	0.000000
S	0.772234	-2.286957	-1.337567
C	-1.261192	-1.978743	2.183857
H	-1.583666	-2.878678	2.742548
H	-2.168641	-1.376015	1.970497
H	-0.623012	-1.375728	2.863099
H	0.688443	-4.783437	-1.190530
C	0.000000	0.000000	0.000000
C	0.661577	0.555087	1.099446
C	1.721724	1.444630	0.776721
H	0.379056	0.318032	2.136088
C	1.890772	1.586449	-0.612546
S	0.721935	0.605744	-1.486809
C	2.555004	2.143805	1.814609
H	2.228946	1.870211	2.836676
H	2.482605	3.247987	1.726239
H	3.629830	1.880735	1.726228
H	2.617927	2.196579	-1.161575
$end

$rem
JOBTYPE		SP
EXCHANGE	HF
CORRELATION	pRIMP2
BASIS		cc-pvtz
METHOD		rimp2
AUX_BASIS	rimp2-cc-pvtz
SOLVENT_METHOD	PCM
PURECART	11111
SYMMETRY	false
MEM_TOTAL	110000
SCF_CONVERGENCE = 6
THRESH=10
$end

$solvent
dielectric 4.90
$end
--------------------------------------------------------------

             Standard Nuclear Orientation (Angstroms)
    I     Atom           X                Y                Z
 ----------------------------------------------------------------
    1      C       0.3881810000    -3.8667250000    -0.6709240000
    2      C      -0.3060200000    -3.7039630000     0.5306480000
    3      C      -0.5333780000    -2.3570560000     0.9237030000
    4      H      -0.6510430000    -4.5610920000     1.1285790000
    5      C       0.0000000000    -1.4406640000     0.0000000000
    6      S       0.7722340000    -2.2869570000    -1.3375670000
    7      C      -1.2611920000    -1.9787430000     2.1838570000
    8      H      -1.5836660000    -2.8786780000     2.7425480000
    9      H      -2.1686410000    -1.3760150000     1.9704970000
   10      H      -0.6230120000    -1.3757280000     2.8630990000
   11      H       0.6884430000    -4.7834370000    -1.1905300000
   12      C       0.0000000000     0.0000000000     0.0000000000
   13      C       0.6615770000     0.5550870000     1.0994460000
   14      C       1.7217240000     1.4446300000     0.7767210000
   15      H       0.3790560000     0.3180320000     2.1360880000
   16      C       1.8907720000     1.5864490000    -0.6125460000
   17      S       0.7219350000     0.6057440000    -1.4868090000
   18      C       2.5550040000     2.1438050000     1.8146090000
   19      H       2.2289460000     1.8702110000     2.8366760000
   20      H       2.4826050000     3.2479870000     1.7262390000
   21      H       3.6298300000     1.8807350000     1.7262280000
   22      H       2.6179270000     2.1965790000    -1.1615750000
 ----------------------------------------------------------------

   10   -1179.6334970282      9.59e-07  Convergence criterion met
 Total energy in the final basis set =    -1179.6334970282
        RIMP2         total energy =     -1181.6253653344 a.u.

                    Orbital Energies (a.u.)
 --------------------------------------------------------------

 Alpha MOs
 -- Occupied --
-91.9860 -91.9783 -11.2853 -11.2783 -11.2667 -11.2618 -11.2562 -11.2547
-11.2376 -11.2343 -11.2319 -11.2265  -8.9866  -8.9782  -6.6675  -6.6667
 -6.6663  -6.6591  -6.6584  -6.6577  -1.1899  -1.1460  -1.0470  -1.0213
 -0.9977  -0.9558  -0.9094  -0.8932  -0.8018  -0.7541  -0.7320  -0.6977
 -0.6551  -0.6177  -0.5935  -0.5810  -0.5697  -0.5623  -0.5503  -0.5405
 -0.5337  -0.5180  -0.5070  -0.4887  -0.4837  -0.4638  -0.4474  -0.3686
 -0.3401  -0.3349  -0.2658

          Ground-State Mulliken Net Atomic Charges

     Atom                 Charge (a.u.)
  ----------------------------------------
      1 C                    -0.259939
      2 C                    -0.238355
      3 C                     0.004926
      4 H                     0.180249
      5 C                     0.010160
      6 S                     0.012698
      7 C                    -0.300231
      8 H                     0.109807
      9 H                     0.109731
     10 H                     0.097243
     11 H                     0.200311
     12 C                    -0.074135
     13 C                    -0.132379
     14 C                    -0.010880
     15 H                     0.199734
     16 C                    -0.185145
     17 S                     0.021026
     18 C                    -0.267443
     19 H                     0.102413
     20 H                     0.108663
     21 H                     0.107701
     22 H                     0.203847
  ----------------------------------------
  Sum of atomic charges =     0.000000

                    Cartesian Multipole Moments
 -----------------------------------------------------------------
    Charge (ESU x 10^10)
                -0.0000
    Dipole Moment (Debye)
         X       1.7132      Y       1.5116      Z       2.7083
       Tot       3.5433
    Quadrupole Moments (Debye-Ang)
        XX     -83.6474     XY       7.4592     YY     -79.2499
        XZ      -1.9835     YZ      -1.4068     ZZ     -81.4914

 Total job time:  590.83s(wall), 588.47s(cpu)
        *  Thank you very much for using Q-Chem.  Have a nice day.  *
