 Q-Chem 5.4, Q-Chem, Inc., Pleasanton, CA (2021)
 Q-Chem 5.4.0 for Intel X86 EM64T Linux

User input:
--------------------------------------------------------------
$molecule
0 1
C	0.594240	-3.866725	-0.497696
C	-0.469057	-3.703963	0.393981
C	-0.817136	-2.357056	0.685571
H	-0.997777	-4.561092	0.837848
C	-0.000000	-1.440664	-0.000000
S	1.183137	-2.286957	-0.992782
C	-1.932056	-1.978743	1.620802
H	-2.426166	-2.878678	2.035506
H	-2.711806	-1.376015	1.109943
H	-1.564678	-1.375728	2.477350
H	1.054110	-4.783437	-0.883271
C	0.000000	0.000000	0.000000
C	0.365003	0.782674	1.099446
C	0.949885	2.036912	0.776721
H	0.209135	0.448431	2.136088
C	1.043159	2.236886	-0.612546
S	0.398297	0.854094	-1.486809
C	1.409609	3.022738	1.814609
H	1.229726	2.636980	2.836676
H	0.877346	3.992870	1.726239
H	2.494910	3.238558	1.726228
H	1.444334	3.097160	-1.161575
$end

$rem
JOBTYPE		SP
EXCHANGE	HF
CORRELATION	pRIMP2
BASIS		cc-pvtz
METHOD		rimp2
AUX_BASIS	rimp2-cc-pvtz
SOLVENT_METHOD	PCM
PURECART	11111
SYMMETRY	false
MEM_TOTAL	110000
SCF_CONVERGENCE = 6
THRESH=10
$end

$solvent
dielectric 4.90
$end
--------------------------------------------------------------

             Standard Nuclear Orientation (Angstroms)
    I     Atom           X                Y                Z
 ----------------------------------------------------------------
    1      C       0.5942400000    -3.8667250000    -0.4976960000
    2      C      -0.4690570000    -3.7039630000     0.3939810000
    3      C      -0.8171360000    -2.3570560000     0.6855710000
    4      H      -0.9977770000    -4.5610920000     0.8378480000
    5      C       0.0000000000    -1.4406640000     0.0000000000
    6      S       1.1831370000    -2.2869570000    -0.9927820000
    7      C      -1.9320560000    -1.9787430000     1.6208020000
    8      H      -2.4261660000    -2.8786780000     2.0355060000
    9      H      -2.7118060000    -1.3760150000     1.1099430000
   10      H      -1.5646780000    -1.3757280000     2.4773500000
   11      H       1.0541100000    -4.7834370000    -0.8832710000
   12      C       0.0000000000     0.0000000000     0.0000000000
   13      C       0.3650030000     0.7826740000     1.0994460000
   14      C       0.9498850000     2.0369120000     0.7767210000
   15      H       0.2091350000     0.4484310000     2.1360880000
   16      C       1.0431590000     2.2368860000    -0.6125460000
   17      S       0.3982970000     0.8540940000    -1.4868090000
   18      C       1.4096090000     3.0227380000     1.8146090000
   19      H       1.2297260000     2.6369800000     2.8366760000
   20      H       0.8773460000     3.9928700000     1.7262390000
   21      H       2.4949100000     3.2385580000     1.7262280000
   22      H       1.4443340000     3.0971600000    -1.1615750000
 ----------------------------------------------------------------

   10   -1179.6744087546      5.03e-07  Convergence criterion met
 Total energy in the final basis set =    -1179.6744087546
        RIMP2         total energy =     -1181.6559158121 a.u.

                    Orbital Energies (a.u.)
 --------------------------------------------------------------

 Alpha MOs
 -- Occupied --
-91.9862 -91.9837 -11.2775 -11.2752 -11.2687 -11.2681 -11.2525 -11.2484
-11.2460 -11.2411 -11.2297 -11.2288  -8.9859  -8.9834  -6.6668  -6.6662
 -6.6657  -6.6643  -6.6637  -6.6631  -1.1811  -1.1492  -1.0420  -1.0230
 -0.9964  -0.9556  -0.9117  -0.8931  -0.8017  -0.7522  -0.7318  -0.6961
 -0.6606  -0.6157  -0.5856  -0.5798  -0.5697  -0.5664  -0.5519  -0.5351
 -0.5304  -0.5198  -0.5080  -0.4908  -0.4821  -0.4719  -0.4572  -0.3570
 -0.3406  -0.3348  -0.2801

          Ground-State Mulliken Net Atomic Charges

     Atom                 Charge (a.u.)
  ----------------------------------------
      1 C                    -0.221159
      2 C                    -0.248413
      3 C                     0.035915
      4 H                     0.182931
      5 C                    -0.031128
      6 S                     0.024454
      7 C                    -0.288093
      8 H                     0.108305
      9 H                     0.110682
     10 H                     0.106586
     11 H                     0.203956
     12 C                    -0.019829
     13 C                    -0.205651
     14 C                     0.012346
     15 H                     0.192455
     16 C                    -0.222940
     17 S                     0.012890
     18 C                    -0.270964
     19 H                     0.102352
     20 H                     0.108208
     21 H                     0.108188
     22 H                     0.198910
  ----------------------------------------
  Sum of atomic charges =     0.000000

                    Cartesian Multipole Moments
 -----------------------------------------------------------------
    Charge (ESU x 10^10)
                -0.0000
    Dipole Moment (Debye)
         X      -0.1834      Y       0.5699      Z       2.4109
       Tot       2.4841
    Quadrupole Moments (Debye-Ang)
        XX     -86.9561     XY       5.9202     YY     -71.4660
        XZ      -2.7142     YZ      -0.5155     ZZ     -83.8584

 Total job time:  572.16s(wall), 568.70s(cpu)
        *  Thank you very much for using Q-Chem.  Have a nice day.  *
