 Q-Chem 5.4, Q-Chem, Inc., Pleasanton, CA (2021)
 Q-Chem 5.4.0 for Intel X86 EM64T Linux

User input:
--------------------------------------------------------------
$molecule
0 1
C	0.763475	-3.866725	-0.133897
C	-0.603206	-3.703963	0.106669
C	-1.050446	-2.357056	0.185154
H	-1.283024	-4.561092	0.226709
C	-0.000000	-1.440664	-0.000000
S	1.521018	-2.286957	-0.268206
C	-2.483610	-1.978743	0.437628
H	-3.118875	-2.878678	0.549717
H	-2.903464	-1.376015	-0.394664
H	-2.593726	-1.375728	1.363110
H	1.354522	-4.783437	-0.237880
C	0.000000	0.000000	0.000000
C	0.555137	0.661535	1.099446
C	1.444710	1.721658	0.776721
H	0.318072	0.379023	2.136088
C	1.586563	1.890676	-0.612546
S	0.605781	0.721904	-1.486809
C	2.143920	2.554907	1.814609
H	1.870325	2.228851	2.836676
H	1.880882	3.629742	1.726239
H	3.248098	2.482476	1.726228
H	2.196723	2.617806	-1.161575
$end

$rem
JOBTYPE		SP
EXCHANGE	HF
CORRELATION	pRIMP2
BASIS		cc-pvtz
METHOD		rimp2
AUX_BASIS	rimp2-cc-pvtz
SOLVENT_METHOD	PCM
PURECART	11111
SYMMETRY	false
MEM_TOTAL	110000
SCF_CONVERGENCE = 6
THRESH=10
$end

$solvent
dielectric 4.90
$end
--------------------------------------------------------------

             Standard Nuclear Orientation (Angstroms)
    I     Atom           X                Y                Z
 ----------------------------------------------------------------
    1      C       0.7634750000    -3.8667250000    -0.1338970000
    2      C      -0.6032060000    -3.7039630000     0.1066690000
    3      C      -1.0504460000    -2.3570560000     0.1851540000
    4      H      -1.2830240000    -4.5610920000     0.2267090000
    5      C       0.0000000000    -1.4406640000     0.0000000000
    6      S       1.5210180000    -2.2869570000    -0.2682060000
    7      C      -2.4836100000    -1.9787430000     0.4376280000
    8      H      -3.1188750000    -2.8786780000     0.5497170000
    9      H      -2.9034640000    -1.3760150000    -0.3946640000
   10      H      -2.5937260000    -1.3757280000     1.3631100000
   11      H       1.3545220000    -4.7834370000    -0.2378800000
   12      C       0.0000000000     0.0000000000     0.0000000000
   13      C       0.5551370000     0.6615350000     1.0994460000
   14      C       1.4447100000     1.7216580000     0.7767210000
   15      H       0.3180720000     0.3790230000     2.1360880000
   16      C       1.5865630000     1.8906760000    -0.6125460000
   17      S       0.6057810000     0.7219040000    -1.4868090000
   18      C       2.1439200000     2.5549070000     1.8146090000
   19      H       1.8703250000     2.2288510000     2.8366760000
   20      H       1.8808820000     3.6297420000     1.7262390000
   21      H       3.2480980000     2.4824760000     1.7262280000
   22      H       2.1967230000     2.6178060000    -1.1615750000
 ----------------------------------------------------------------

   10   -1179.6547714848      5.78e-07  Convergence criterion met
 Total energy in the final basis set =    -1179.6547714848
        RIMP2         total energy =     -1181.6397901505 a.u.

                    Orbital Energies (a.u.)
 --------------------------------------------------------------

 Alpha MOs
 -- Occupied --
-91.9838 -91.9794 -11.2759 -11.2707 -11.2677 -11.2660 -11.2525 -11.2514
-11.2459 -11.2382 -11.2298 -11.2273  -8.9838  -8.9793  -6.6647  -6.6640
 -6.6635  -6.6602  -6.6597  -6.6590  -1.1823  -1.1475  -1.0421  -1.0201
 -0.9974  -0.9527  -0.9115  -0.8915  -0.7988  -0.7500  -0.7355  -0.6922
 -0.6590  -0.6179  -0.5837  -0.5793  -0.5694  -0.5686  -0.5502  -0.5324
 -0.5307  -0.5177  -0.5087  -0.4902  -0.4730  -0.4655  -0.4612  -0.3558
 -0.3322  -0.3168  -0.2982

          Ground-State Mulliken Net Atomic Charges

     Atom                 Charge (a.u.)
  ----------------------------------------
      1 C                    -0.213740
      2 C                    -0.253075
      3 C                     0.056558
      4 H                     0.181340
      5 C                    -0.065056
      6 S                     0.022611
      7 C                    -0.284009
      8 H                     0.106480
      9 H                     0.110070
     10 H                     0.107512
     11 H                     0.203108
     12 C                    -0.049154
     13 C                    -0.191054
     14 C                     0.016689
     15 H                     0.183616
     16 C                    -0.211190
     17 S                     0.030059
     18 C                    -0.268030
     19 H                     0.102833
     20 H                     0.107731
     21 H                     0.107324
     22 H                     0.199377
  ----------------------------------------
  Sum of atomic charges =     0.000000

                    Cartesian Multipole Moments
 -----------------------------------------------------------------
    Charge (ESU x 10^10)
                -0.0000
    Dipole Moment (Debye)
         X       0.2031      Y       0.6624      Z       1.7815
       Tot       1.9115
    Quadrupole Moments (Debye-Ang)
        XX     -81.7856     XY       7.9209     YY     -74.5246
        XZ      -0.5235     YZ       0.3167     ZZ     -86.0760

 Total job time:  564.12s(wall), 559.15s(cpu)
        *  Thank you very much for using Q-Chem.  Have a nice day.  *
