 Q-Chem 5.4, Q-Chem, Inc., Pleasanton, CA (2021)
 Q-Chem 5.4.0 for Intel X86 EM64T Linux

User input:
--------------------------------------------------------------
$molecule
0 1
C	-0.775127	-3.866725	-0.000713
C	0.612565	-3.703963	-0.000302
C	1.066639	-2.357056	0.000067
H	1.302900	-4.561092	-0.000470
C	0.000000	-1.440664	0.000000
S	-1.544483	-2.286957	0.000009
C	2.521872	-1.978743	0.000295
H	3.166949	-2.878678	0.000221
H	2.790821	-1.376015	0.892850
H	2.791023	-1.375728	-0.892005
H	-1.375251	-4.783437	-0.000945
C	0.000000	0.000000	0.000000
C	0.295399	0.811508	1.099446
C	0.768742	2.111949	0.776721
H	0.169256	0.464952	2.136088
C	0.844232	2.319291	-0.612546
S	0.322342	0.885558	-1.486809
C	1.140796	3.134091	1.814609
H	0.995218	2.734123	2.836676
H	0.526006	4.054142	1.726239
H	2.203157	3.443680	1.726228
H	1.168902	3.211257	-1.161575
$end

$rem
JOBTYPE		SP
EXCHANGE	HF
CORRELATION	pRIMP2
BASIS		cc-pvtz
METHOD		rimp2
AUX_BASIS	rimp2-cc-pvtz
SOLVENT_METHOD	PCM
PURECART	11111
SYMMETRY	false
MEM_TOTAL	110000
SCF_CONVERGENCE = 6
THRESH=10
$end

$solvent
dielectric 4.90
$end
--------------------------------------------------------------

             Standard Nuclear Orientation (Angstroms)
    I     Atom           X                Y                Z
 ----------------------------------------------------------------
    1      C      -0.7751270000    -3.8667250000    -0.0007130000
    2      C       0.6125650000    -3.7039630000    -0.0003020000
    3      C       1.0666390000    -2.3570560000     0.0000670000
    4      H       1.3029000000    -4.5610920000    -0.0004700000
    5      C       0.0000000000    -1.4406640000     0.0000000000
    6      S      -1.5444830000    -2.2869570000     0.0000090000
    7      C       2.5218720000    -1.9787430000     0.0002950000
    8      H       3.1669490000    -2.8786780000     0.0002210000
    9      H       2.7908210000    -1.3760150000     0.8928500000
   10      H       2.7910230000    -1.3757280000    -0.8920050000
   11      H      -1.3752510000    -4.7834370000    -0.0009450000
   12      C       0.0000000000     0.0000000000     0.0000000000
   13      C       0.2953990000     0.8115080000     1.0994460000
   14      C       0.7687420000     2.1119490000     0.7767210000
   15      H       0.1692560000     0.4649520000     2.1360880000
   16      C       0.8442320000     2.3192910000    -0.6125460000
   17      S       0.3223420000     0.8855580000    -1.4868090000
   18      C       1.1407960000     3.1340910000     1.8146090000
   19      H       0.9952180000     2.7341230000     2.8366760000
   20      H       0.5260060000     4.0541420000     1.7262390000
   21      H       2.2031570000     3.4436800000     1.7262280000
   22      H       1.1689020000     3.2112570000    -1.1615750000
 ----------------------------------------------------------------

   10   -1179.6780513561      5.34e-07  Convergence criterion met
 Total energy in the final basis set =    -1179.6780513561
        RIMP2         total energy =     -1181.6585927740 a.u.

                    Orbital Energies (a.u.)
 --------------------------------------------------------------

 Alpha MOs
 -- Occupied --
-91.9852 -91.9825 -11.2754 -11.2727 -11.2709 -11.2678 -11.2530 -11.2513
-11.2451 -11.2413 -11.2294 -11.2286  -8.9848  -8.9822  -6.6656  -6.6651
 -6.6645  -6.6631  -6.6625  -6.6620  -1.1789  -1.1492  -1.0405  -1.0218
 -0.9974  -0.9541  -0.9131  -0.8919  -0.7995  -0.7534  -0.7316  -0.6955
 -0.6613  -0.6164  -0.5816  -0.5796  -0.5720  -0.5691  -0.5515  -0.5310
 -0.5293  -0.5204  -0.5099  -0.4914  -0.4835  -0.4643  -0.4606  -0.3448
 -0.3400  -0.3124  -0.3106

          Ground-State Mulliken Net Atomic Charges

     Atom                 Charge (a.u.)
  ----------------------------------------
      1 C                    -0.216079
      2 C                    -0.249203
      3 C                     0.066621
      4 H                     0.183846
      5 C                    -0.034448
      6 S                     0.026398
      7 C                    -0.280246
      8 H                     0.108912
      9 H                     0.109671
     10 H                     0.111213
     11 H                     0.203500
     12 C                    -0.048365
     13 C                    -0.237129
     14 C                     0.028661
     15 H                     0.186624
     16 C                    -0.235652
     17 S                     0.029074
     18 C                    -0.270388
     19 H                     0.102874
     20 H                     0.108272
     21 H                     0.107586
     22 H                     0.198258
  ----------------------------------------
  Sum of atomic charges =     0.000000

                    Cartesian Multipole Moments
 -----------------------------------------------------------------
    Charge (ESU x 10^10)
                -0.0000
    Dipole Moment (Debye)
         X       2.2445      Y       0.4000      Z       1.4720
       Tot       2.7138
    Quadrupole Moments (Debye-Ang)
        XX     -85.0034     XY       1.3449     YY     -70.3461
        XZ       0.3252     YZ       0.9525     ZZ     -86.6366

 Total job time:  561.32s(wall), 557.81s(cpu)
        *  Thank you very much for using Q-Chem.  Have a nice day.  *
