 Q-Chem 5.4, Q-Chem, Inc., Pleasanton, CA (2021)
 Q-Chem 5.4.0 for Intel X86 EM64T Linux

User input:
--------------------------------------------------------------
$molecule
0 1
C	0.265779	-3.866725	-0.728138
C	-0.209225	-3.703963	0.575726
C	-0.364875	-2.357056	1.002290
H	-0.445176	-4.561092	1.224486
C	0.000000	-1.440664	0.000000
S	0.528236	-2.286957	-1.451343
C	-0.862808	-1.978743	2.369683
H	-1.083368	-2.878678	2.975883
H	-1.793522	-1.376015	2.317142
H	-0.116375	-1.375728	2.927787
H	0.471251	-4.783437	-1.291990
C	0.000000	0.000000	0.000000
C	0.295399	0.811508	1.099446
C	0.768742	2.111949	0.776721
H	0.169256	0.464952	2.136088
C	0.844232	2.319291	-0.612546
S	0.322342	0.885558	-1.486809
C	1.140796	3.134091	1.814609
H	0.995218	2.734123	2.836676
H	0.526006	4.054142	1.726239
H	2.203157	3.443680	1.726228
H	1.168902	3.211257	-1.161575
$end

$rem
JOBTYPE		SP
EXCHANGE	HF
CORRELATION	pRIMP2
BASIS		cc-pvtz
METHOD		rimp2
AUX_BASIS	rimp2-cc-pvtz
SOLVENT_METHOD	PCM
PURECART	11111
SYMMETRY	false
MEM_TOTAL	110000
SCF_CONVERGENCE = 6
THRESH=10
$end

$solvent
dielectric 4.90
$end
--------------------------------------------------------------

             Standard Nuclear Orientation (Angstroms)
    I     Atom           X                Y                Z
 ----------------------------------------------------------------
    1      C       0.2657790000    -3.8667250000    -0.7281380000
    2      C      -0.2092250000    -3.7039630000     0.5757260000
    3      C      -0.3648750000    -2.3570560000     1.0022900000
    4      H      -0.4451760000    -4.5610920000     1.2244860000
    5      C       0.0000000000    -1.4406640000     0.0000000000
    6      S       0.5282360000    -2.2869570000    -1.4513430000
    7      C      -0.8628080000    -1.9787430000     2.3696830000
    8      H      -1.0833680000    -2.8786780000     2.9758830000
    9      H      -1.7935220000    -1.3760150000     2.3171420000
   10      H      -0.1163750000    -1.3757280000     2.9277870000
   11      H       0.4712510000    -4.7834370000    -1.2919900000
   12      C       0.0000000000     0.0000000000     0.0000000000
   13      C       0.2953990000     0.8115080000     1.0994460000
   14      C       0.7687420000     2.1119490000     0.7767210000
   15      H       0.1692560000     0.4649520000     2.1360880000
   16      C       0.8442320000     2.3192910000    -0.6125460000
   17      S       0.3223420000     0.8855580000    -1.4868090000
   18      C       1.1407960000     3.1340910000     1.8146090000
   19      H       0.9952180000     2.7341230000     2.8366760000
   20      H       0.5260060000     4.0541420000     1.7262390000
   21      H       2.2031570000     3.4436800000     1.7262280000
   22      H       1.1689020000     3.2112570000    -1.1615750000
 ----------------------------------------------------------------

   10   -1179.6776215531      4.77e-07  Convergence criterion met
 Total energy in the final basis set =    -1179.6776215531
        RIMP2         total energy =     -1181.6595741730 a.u.

                    Orbital Energies (a.u.)
 --------------------------------------------------------------

 Alpha MOs
 -- Occupied --
-91.9862 -91.9843 -11.2816 -11.2783 -11.2695 -11.2671 -11.2530 -11.2505
-11.2434 -11.2429 -11.2308 -11.2298  -8.9860  -8.9842  -6.6670  -6.6664
 -6.6658  -6.6651  -6.6646  -6.6639  -1.1823  -1.1500  -1.0427  -1.0263
 -0.9961  -0.9567  -0.9134  -0.8945  -0.8031  -0.7559  -0.7284  -0.7000
 -0.6613  -0.6144  -0.5906  -0.5819  -0.5704  -0.5635  -0.5522  -0.5397
 -0.5306  -0.5224  -0.5057  -0.4908  -0.4854  -0.4774  -0.4510  -0.3688
 -0.3462  -0.3373  -0.2693

          Ground-State Mulliken Net Atomic Charges

     Atom                 Charge (a.u.)
  ----------------------------------------
      1 C                    -0.222544
      2 C                    -0.247631
      3 C                     0.051174
      4 H                     0.183796
      5 C                    -0.032955
      6 S                     0.011026
      7 C                    -0.312236
      8 H                     0.115845
      9 H                     0.116783
     10 H                     0.104374
     11 H                     0.206129
     12 C                     0.016046
     13 C                    -0.223011
     14 C                     0.017914
     15 H                     0.193501
     16 C                    -0.234152
     17 S                     0.007168
     18 C                    -0.271033
     19 H                     0.101624
     20 H                     0.108852
     21 H                     0.108755
     22 H                     0.200573
  ----------------------------------------
  Sum of atomic charges =     0.000000

                    Cartesian Multipole Moments
 -----------------------------------------------------------------
    Charge (ESU x 10^10)
                -0.0000
    Dipole Moment (Debye)
         X       0.2101      Y       0.4197      Z       2.8313
       Tot       2.8700
    Quadrupole Moments (Debye-Ang)
        XX     -90.6400     XY       4.3725     YY     -70.2142
        XZ      -1.7664     YZ      -1.1344     ZZ     -80.8476

 Total job time:  558.77s(wall), 555.13s(cpu)
        *  Thank you very much for using Q-Chem.  Have a nice day.  *
