 Q-Chem 5.4, Q-Chem, Inc., Pleasanton, CA (2021)
 Q-Chem 5.4.0 for Intel X86 EM64T Linux

User input:
--------------------------------------------------------------
$molecule
0 1
C	0.000713	-3.866725	-0.775127
C	0.000302	-3.703963	0.612565
C	-0.000067	-2.357056	1.066639
H	0.000470	-4.561092	1.302900
C	0.000000	-1.440664	0.000000
S	-0.000009	-2.286957	-1.544483
C	-0.000295	-1.978743	2.521872
H	-0.000221	-2.878678	3.166949
H	-0.892850	-1.376015	2.790821
H	0.892005	-1.375728	2.791023
H	0.000945	-4.783437	-1.375251
C	0.000000	0.000000	0.000000
C	0.223548	0.834165	1.099446
C	0.581748	2.170912	0.776721
H	0.128089	0.477934	2.136088
C	0.638880	2.384045	-0.612546
S	0.243934	0.910282	-1.486809
C	0.863301	3.221592	1.814609
H	0.753137	2.810458	2.836676
H	0.170663	4.084559	1.726239
H	1.894637	3.622593	1.726228
H	0.884575	3.300913	-1.161575
$end

$rem
JOBTYPE		SP
EXCHANGE	HF
CORRELATION	pRIMP2
BASIS		cc-pvtz
METHOD		rimp2
AUX_BASIS	rimp2-cc-pvtz
SOLVENT_METHOD	PCM
PURECART	11111
SYMMETRY	false
MEM_TOTAL	110000
SCF_CONVERGENCE = 6
THRESH=10
$end

$solvent
dielectric 4.90
$end
--------------------------------------------------------------

             Standard Nuclear Orientation (Angstroms)
    I     Atom           X                Y                Z
 ----------------------------------------------------------------
    1      C       0.0007130000    -3.8667250000    -0.7751270000
    2      C       0.0003020000    -3.7039630000     0.6125650000
    3      C      -0.0000670000    -2.3570560000     1.0666390000
    4      H       0.0004700000    -4.5610920000     1.3029000000
    5      C       0.0000000000    -1.4406640000     0.0000000000
    6      S      -0.0000090000    -2.2869570000    -1.5444830000
    7      C      -0.0002950000    -1.9787430000     2.5218720000
    8      H      -0.0002210000    -2.8786780000     3.1669490000
    9      H      -0.8928500000    -1.3760150000     2.7908210000
   10      H       0.8920050000    -1.3757280000     2.7910230000
   11      H       0.0009450000    -4.7834370000    -1.3752510000
   12      C       0.0000000000     0.0000000000     0.0000000000
   13      C       0.2235480000     0.8341650000     1.0994460000
   14      C       0.5817480000     2.1709120000     0.7767210000
   15      H       0.1280890000     0.4779340000     2.1360880000
   16      C       0.6388800000     2.3840450000    -0.6125460000
   17      S       0.2439340000     0.9102820000    -1.4868090000
   18      C       0.8633010000     3.2215920000     1.8146090000
   19      H       0.7531370000     2.8104580000     2.8366760000
   20      H       0.1706630000     4.0845590000     1.7262390000
   21      H       1.8946370000     3.6225930000     1.7262280000
   22      H       0.8845750000     3.3009130000    -1.1615750000
 ----------------------------------------------------------------

   10   -1179.6808139909      4.88e-07  Convergence criterion met
 Total energy in the final basis set =    -1179.6808139909
        RIMP2         total energy =     -1181.6621903338 a.u.

                    Orbital Energies (a.u.)
 --------------------------------------------------------------

 Alpha MOs
 -- Occupied --
-91.9856 -91.9843 -11.2827 -11.2788 -11.2718 -11.2655 -11.2530 -11.2524
-11.2437 -11.2409 -11.2317 -11.2296  -8.9855  -8.9844  -6.6665  -6.6659
 -6.6653  -6.6653  -6.6648  -6.6641  -1.1821  -1.1503  -1.0424  -1.0278
 -0.9958  -0.9565  -0.9146  -0.8948  -0.8032  -0.7571  -0.7271  -0.7013
 -0.6619  -0.6140  -0.5913  -0.5824  -0.5703  -0.5639  -0.5523  -0.5404
 -0.5296  -0.5239  -0.5043  -0.4913  -0.4868  -0.4779  -0.4499  -0.3713
 -0.3483  -0.3369  -0.2679

          Ground-State Mulliken Net Atomic Charges

     Atom                 Charge (a.u.)
  ----------------------------------------
      1 C                    -0.216130
      2 C                    -0.251242
      3 C                     0.065659
      4 H                     0.184419
      5 C                    -0.042521
      6 S                     0.007486
      7 C                    -0.316439
      8 H                     0.119180
      9 H                     0.110856
     10 H                     0.109155
     11 H                     0.207414
     12 C                     0.040604
     13 C                    -0.251949
     14 C                     0.030559
     15 H                     0.194250
     16 C                    -0.249476
     17 S                     0.009406
     18 C                    -0.270555
     19 H                     0.101384
     20 H                     0.108636
     21 H                     0.108980
     22 H                     0.200327
  ----------------------------------------
  Sum of atomic charges =     0.000000

                    Cartesian Multipole Moments
 -----------------------------------------------------------------
    Charge (ESU x 10^10)
                -0.0000
    Dipole Moment (Debye)
         X       0.5129      Y       0.2212      Z       2.9526
       Tot       3.0050
    Quadrupole Moments (Debye-Ang)
        XX     -92.0158     XY       2.7865     YY     -69.1908
        XZ       0.2657     YZ      -1.2488     ZZ     -80.0405

 Total job time:  566.50s(wall), 562.46s(cpu)
        *  Thank you very much for using Q-Chem.  Have a nice day.  *
