 Q-Chem 5.4, Q-Chem, Inc., Pleasanton, CA (2021)
 Q-Chem 5.4.0 for Intel X86 EM64T Linux

User input:
--------------------------------------------------------------
$molecule
0 1
C	-0.593324	-3.866725	-0.498788
C	0.469446	-3.703963	0.393517
C	0.817050	-2.357056	0.685674
H	0.998381	-4.561092	0.837128
C	-0.000000	-1.440664	-0.000000
S	-1.183149	-2.286957	-0.992768
C	1.931676	-1.978743	1.621254
H	2.425882	-2.878678	2.035845
H	1.563980	-1.376015	2.477868
H	2.711417	-1.375728	1.110719
H	-1.052896	-4.783437	-0.884718
C	0.000000	0.000000	0.000000
C	0.149995	0.850475	1.099446
C	0.390327	2.213354	0.776721
H	0.085947	0.487279	2.136088
C	0.428665	2.430655	-0.612546
S	0.163670	0.928078	-1.486809
C	0.579235	3.284574	1.814609
H	0.505323	2.865404	2.836676
H	-0.185980	4.083890	1.726239
H	1.571698	3.773937	1.726228
H	0.593515	3.365448	-1.161575
$end

$rem
JOBTYPE		SP
EXCHANGE	HF
CORRELATION	pRIMP2
BASIS		cc-pvtz
METHOD		rimp2
AUX_BASIS	rimp2-cc-pvtz
SOLVENT_METHOD	PCM
PURECART	11111
SYMMETRY	false
MEM_TOTAL	110000
SCF_CONVERGENCE = 6
THRESH=10
$end

$solvent
dielectric 4.90
$end
--------------------------------------------------------------

             Standard Nuclear Orientation (Angstroms)
    I     Atom           X                Y                Z
 ----------------------------------------------------------------
    1      C      -0.5933240000    -3.8667250000    -0.4987880000
    2      C       0.4694460000    -3.7039630000     0.3935170000
    3      C       0.8170500000    -2.3570560000     0.6856740000
    4      H       0.9983810000    -4.5610920000     0.8371280000
    5      C       0.0000000000    -1.4406640000     0.0000000000
    6      S      -1.1831490000    -2.2869570000    -0.9927680000
    7      C       1.9316760000    -1.9787430000     1.6212540000
    8      H       2.4258820000    -2.8786780000     2.0358450000
    9      H       1.5639800000    -1.3760150000     2.4778680000
   10      H       2.7114170000    -1.3757280000     1.1107190000
   11      H      -1.0528960000    -4.7834370000    -0.8847180000
   12      C       0.0000000000     0.0000000000     0.0000000000
   13      C       0.1499950000     0.8504750000     1.0994460000
   14      C       0.3903270000     2.2133540000     0.7767210000
   15      H       0.0859470000     0.4872790000     2.1360880000
   16      C       0.4286650000     2.4306550000    -0.6125460000
   17      S       0.1636700000     0.9280780000    -1.4868090000
   18      C       0.5792350000     3.2845740000     1.8146090000
   19      H       0.5053230000     2.8654040000     2.8366760000
   20      H      -0.1859800000     4.0838900000     1.7262390000
   21      H       1.5716980000     3.7739370000     1.7262280000
   22      H       0.5935150000     3.3654480000    -1.1615750000
 ----------------------------------------------------------------

   10   -1179.6848415249      5.22e-07  Convergence criterion met
 Total energy in the final basis set =    -1179.6848415249
        RIMP2         total energy =     -1181.6640140141 a.u.

                    Orbital Energies (a.u.)
 --------------------------------------------------------------

 Alpha MOs
 -- Occupied --
-91.9858 -91.9843 -11.2799 -11.2752 -11.2725 -11.2647 -11.2541 -11.2517
-11.2428 -11.2416 -11.2295 -11.2293  -8.9853  -8.9841  -6.6662  -6.6657
 -6.6650  -6.6650  -6.6645  -6.6639  -1.1797  -1.1498  -1.0409  -1.0245
 -0.9964  -0.9554  -0.9132  -0.8931  -0.8016  -0.7540  -0.7303  -0.6975
 -0.6620  -0.6154  -0.5854  -0.5803  -0.5705  -0.5655  -0.5520  -0.5353
 -0.5291  -0.5218  -0.5073  -0.4915  -0.4868  -0.4693  -0.4585  -0.3509
 -0.3414  -0.3399  -0.2827

          Ground-State Mulliken Net Atomic Charges

     Atom                 Charge (a.u.)
  ----------------------------------------
      1 C                    -0.213841
      2 C                    -0.248718
      3 C                     0.051154
      4 H                     0.184354
      5 C                    -0.033794
      6 S                     0.020671
      7 C                    -0.284412
      8 H                     0.111820
      9 H                     0.107266
     10 H                     0.114443
     11 H                     0.205119
     12 C                    -0.008232
     13 C                    -0.254955
     14 C                     0.029471
     15 H                     0.192797
     16 C                    -0.244504
     17 S                     0.025075
     18 C                    -0.271282
     19 H                     0.102194
     20 H                     0.108758
     21 H                     0.108339
     22 H                     0.198277
  ----------------------------------------
  Sum of atomic charges =     0.000000

                    Cartesian Multipole Moments
 -----------------------------------------------------------------
    Charge (ESU x 10^10)
                -0.0000
    Dipole Moment (Debye)
         X       1.5025      Y       0.2188      Z       2.4387
       Tot       2.8728
    Quadrupole Moments (Debye-Ang)
        XX     -88.5661     XY       0.2799     YY     -68.8911
        XZ       3.4073     YZ      -0.3721     ZZ     -84.0304

 Total job time:  551.74s(wall), 548.56s(cpu)
        *  Thank you very much for using Q-Chem.  Have a nice day.  *
