 Q-Chem 5.4, Q-Chem, Inc., Pleasanton, CA (2021)
 Q-Chem 5.4.0 for Intel X86 EM64T Linux

User input:
--------------------------------------------------------------
$molecule
0 1
C	-0.594240	-3.866725	0.497696
C	0.469057	-3.703963	-0.393981
C	0.817136	-2.357056	-0.685571
H	0.997777	-4.561092	-0.837848
C	0.000000	-1.440664	0.000000
S	-1.183137	-2.286957	0.992782
C	1.932056	-1.978743	-1.620802
H	2.426166	-2.878678	-2.035506
H	2.711806	-1.376015	-1.109943
H	1.564678	-1.375728	-2.477350
H	-1.054110	-4.783437	0.883271
C	0.000000	0.000000	0.000000
C	0.747916	0.431772	1.099446
C	1.946425	1.123709	0.776721
H	0.428523	0.247378	2.136088
C	2.137531	1.234018	-0.612546
S	0.816154	0.471179	-1.486809
C	2.888455	1.667564	1.814609
H	2.519842	1.454746	2.836676
H	3.008896	2.767543	1.726239
H	3.901271	1.221850	1.726228
H	2.959587	1.708609	-1.161575
$end

$rem
JOBTYPE		SP
EXCHANGE	HF
CORRELATION	pRIMP2
BASIS		cc-pvtz
METHOD		rimp2
AUX_BASIS	rimp2-cc-pvtz
SOLVENT_METHOD	PCM
PURECART	11111
SYMMETRY	false
MEM_TOTAL	110000
SCF_CONVERGENCE = 6
THRESH=10
$end

$solvent
dielectric 4.90
$end
--------------------------------------------------------------

             Standard Nuclear Orientation (Angstroms)
    I     Atom           X                Y                Z
 ----------------------------------------------------------------
    1      C      -0.5942400000    -3.8667250000     0.4976960000
    2      C       0.4690570000    -3.7039630000    -0.3939810000
    3      C       0.8171360000    -2.3570560000    -0.6855710000
    4      H       0.9977770000    -4.5610920000    -0.8378480000
    5      C       0.0000000000    -1.4406640000     0.0000000000
    6      S      -1.1831370000    -2.2869570000     0.9927820000
    7      C       1.9320560000    -1.9787430000    -1.6208020000
    8      H       2.4261660000    -2.8786780000    -2.0355060000
    9      H       2.7118060000    -1.3760150000    -1.1099430000
   10      H       1.5646780000    -1.3757280000    -2.4773500000
   11      H      -1.0541100000    -4.7834370000     0.8832710000
   12      C       0.0000000000     0.0000000000     0.0000000000
   13      C       0.7479160000     0.4317720000     1.0994460000
   14      C       1.9464250000     1.1237090000     0.7767210000
   15      H       0.4285230000     0.2473780000     2.1360880000
   16      C       2.1375310000     1.2340180000    -0.6125460000
   17      S       0.8161540000     0.4711790000    -1.4868090000
   18      C       2.8884550000     1.6675640000     1.8146090000
   19      H       2.5198420000     1.4547460000     2.8366760000
   20      H       3.0088960000     2.7675430000     1.7262390000
   21      H       3.9012710000     1.2218500000     1.7262280000
   22      H       2.9595870000     1.7086090000    -1.1615750000
 ----------------------------------------------------------------

   11   -1179.5898056367      5.23e-07  Convergence criterion met
 Total energy in the final basis set =    -1179.5898056367
        RIMP2         total energy =     -1181.5928043848 a.u.

                    Orbital Energies (a.u.)
 --------------------------------------------------------------

 Alpha MOs
 -- Occupied --
-91.9800 -91.9730 -11.2899 -11.2793 -11.2663 -11.2570 -11.2547 -11.2535
-11.2370 -11.2348 -11.2319 -11.2180  -8.9817  -8.9733  -6.6622  -6.6615
 -6.6614  -6.6543  -6.6537  -6.6531  -1.1932  -1.1442  -1.0478  -1.0215
 -0.9985  -0.9516  -0.9102  -0.8932  -0.7937  -0.7606  -0.7320  -0.6950
 -0.6541  -0.6216  -0.5895  -0.5835  -0.5756  -0.5670  -0.5487  -0.5406
 -0.5248  -0.5215  -0.5116  -0.4932  -0.4645  -0.4539  -0.4408  -0.3584
 -0.3360  -0.3275  -0.2718

          Ground-State Mulliken Net Atomic Charges

     Atom                 Charge (a.u.)
  ----------------------------------------
      1 C                    -0.234300
      2 C                    -0.258457
      3 C                     0.008590
      4 H                     0.182410
      5 C                     0.019078
      6 S                    -0.016608
      7 C                    -0.290479
      8 H                     0.102219
      9 H                     0.110503
     10 H                     0.117444
     11 H                     0.199038
     12 C                    -0.147648
     13 C                    -0.090557
     14 C                    -0.022348
     15 H                     0.194104
     16 C                    -0.179031
     17 S                     0.051720
     18 C                    -0.266212
     19 H                     0.103980
     20 H                     0.107901
     21 H                     0.105427
     22 H                     0.203226
  ----------------------------------------
  Sum of atomic charges =     0.000000

                    Cartesian Multipole Moments
 -----------------------------------------------------------------
    Charge (ESU x 10^10)
                -0.0000
    Dipole Moment (Debye)
         X       4.1902      Y       1.2089      Z       0.4258
       Tot       4.3818
    Quadrupole Moments (Debye-Ang)
        XX     -79.6889     XY       4.0660     YY     -82.2769
        XZ      -2.4633     YZ       2.0962     ZZ     -82.8293

 Total job time:  659.60s(wall), 655.11s(cpu)
        *  Thank you very much for using Q-Chem.  Have a nice day.  *
