 Q-Chem 5.4, Q-Chem, Inc., Pleasanton, CA (2021)
 Q-Chem 5.4.0 for Intel X86 EM64T Linux

User input:
--------------------------------------------------------------
$molecule
0 1
C	-0.388181	-3.866725	0.670924
C	0.306020	-3.703963	-0.530648
C	0.533378	-2.357056	-0.923703
H	0.651043	-4.561092	-1.128579
C	0.000000	-1.440664	0.000000
S	-0.772234	-2.286957	1.337567
C	1.261192	-1.978743	-2.183857
H	1.583666	-2.878678	-2.742548
H	2.168641	-1.376015	-1.970497
H	0.623012	-1.375728	-2.863099
H	-0.688443	-4.783437	1.190530
C	0.000000	0.000000	0.000000
C	0.295399	0.811508	1.099446
C	0.768742	2.111949	0.776721
H	0.169256	0.464952	2.136088
C	0.844232	2.319291	-0.612546
S	0.322342	0.885558	-1.486809
C	1.140796	3.134091	1.814609
H	0.995218	2.734123	2.836676
H	0.526006	4.054142	1.726239
H	2.203157	3.443680	1.726228
H	1.168902	3.211257	-1.161575
$end

$rem
JOBTYPE		SP
EXCHANGE	HF
CORRELATION	pRIMP2
BASIS		cc-pvtz
METHOD		rimp2
AUX_BASIS	rimp2-cc-pvtz
SOLVENT_METHOD	PCM
PURECART	11111
SYMMETRY	false
MEM_TOTAL	110000
SCF_CONVERGENCE = 6
THRESH=10
$end

$solvent
dielectric 4.90
$end
--------------------------------------------------------------

             Standard Nuclear Orientation (Angstroms)
    I     Atom           X                Y                Z
 ----------------------------------------------------------------
    1      C      -0.3881810000    -3.8667250000     0.6709240000
    2      C       0.3060200000    -3.7039630000    -0.5306480000
    3      C       0.5333780000    -2.3570560000    -0.9237030000
    4      H       0.6510430000    -4.5610920000    -1.1285790000
    5      C       0.0000000000    -1.4406640000     0.0000000000
    6      S      -0.7722340000    -2.2869570000     1.3375670000
    7      C       1.2611920000    -1.9787430000    -2.1838570000
    8      H       1.5836660000    -2.8786780000    -2.7425480000
    9      H       2.1686410000    -1.3760150000    -1.9704970000
   10      H       0.6230120000    -1.3757280000    -2.8630990000
   11      H      -0.6884430000    -4.7834370000     1.1905300000
   12      C       0.0000000000     0.0000000000     0.0000000000
   13      C       0.2953990000     0.8115080000     1.0994460000
   14      C       0.7687420000     2.1119490000     0.7767210000
   15      H       0.1692560000     0.4649520000     2.1360880000
   16      C       0.8442320000     2.3192910000    -0.6125460000
   17      S       0.3223420000     0.8855580000    -1.4868090000
   18      C       1.1407960000     3.1340910000     1.8146090000
   19      H       0.9952180000     2.7341230000     2.8366760000
   20      H       0.5260060000     4.0541420000     1.7262390000
   21      H       2.2031570000     3.4436800000     1.7262280000
   22      H       1.1689020000     3.2112570000    -1.1615750000
 ----------------------------------------------------------------

   10   -1179.6756664639      5.05e-07  Convergence criterion met
 Total energy in the final basis set =    -1179.6756664639
        RIMP2         total energy =     -1181.6585236709 a.u.

                    Orbital Energies (a.u.)
 --------------------------------------------------------------

 Alpha MOs
 -- Occupied --
-91.9842 -91.9833 -11.2805 -11.2777 -11.2702 -11.2656 -11.2517 -11.2510
-11.2432 -11.2424 -11.2291 -11.2277  -8.9841  -8.9832  -6.6650  -6.6644
 -6.6642  -6.6638  -6.6636  -6.6630  -1.1813  -1.1493  -1.0422  -1.0235
 -0.9985  -0.9528  -0.9134  -0.8944  -0.7991  -0.7631  -0.7222  -0.6957
 -0.6614  -0.6160  -0.5835  -0.5791  -0.5775  -0.5696  -0.5519  -0.5333
 -0.5259  -0.5200  -0.5116  -0.4954  -0.4843  -0.4660  -0.4522  -0.3652
 -0.3419  -0.3380  -0.2717

          Ground-State Mulliken Net Atomic Charges

     Atom                 Charge (a.u.)
  ----------------------------------------
      1 C                    -0.215901
      2 C                    -0.250838
      3 C                     0.044727
      4 H                     0.184613
      5 C                    -0.032371
      6 S                     0.012159
      7 C                    -0.304778
      8 H                     0.110415
      9 H                     0.120696
     10 H                     0.110393
     11 H                     0.205196
     12 C                     0.014372
     13 C                    -0.231079
     14 C                     0.017419
     15 H                     0.183033
     16 C                    -0.233813
     17 S                     0.017752
     18 C                    -0.270014
     19 H                     0.102974
     20 H                     0.108369
     21 H                     0.107796
     22 H                     0.198879
  ----------------------------------------
  Sum of atomic charges =     0.000000

                    Cartesian Multipole Moments
 -----------------------------------------------------------------
    Charge (ESU x 10^10)
                -0.0000
    Dipole Moment (Debye)
         X       1.4914      Y       0.3576      Z       0.0349
       Tot       1.5340
    Quadrupole Moments (Debye-Ang)
        XX     -89.7810     XY       2.4512     YY     -70.7535
        XZ      -2.5757     YZ       2.8032     ZZ     -81.5708

 Total job time:  554.59s(wall), 552.03s(cpu)
        *  Thank you very much for using Q-Chem.  Have a nice day.  *
