 Q-Chem 5.4, Q-Chem, Inc., Pleasanton, CA (2021)
 Q-Chem 5.4.0 for Intel X86 EM64T Linux

User input:
--------------------------------------------------------------
$molecule
0 1
C	-0.265779	-3.866725	0.728138
C	0.209225	-3.703963	-0.575726
C	0.364875	-2.357056	-1.002290
H	0.445176	-4.561092	-1.224486
C	-0.000000	-1.440664	-0.000000
S	-0.528236	-2.286957	1.451343
C	0.862808	-1.978743	-2.369683
H	1.083368	-2.878678	-2.975883
H	1.793522	-1.376015	-2.317142
H	0.116375	-1.375728	-2.927787
H	-0.471251	-4.783437	1.291990
C	0.000000	0.000000	0.000000
C	0.365003	0.782674	1.099446
C	0.949885	2.036912	0.776721
H	0.209135	0.448431	2.136088
C	1.043159	2.236886	-0.612546
S	0.398297	0.854094	-1.486809
C	1.409609	3.022738	1.814609
H	1.229726	2.636980	2.836676
H	0.877346	3.992870	1.726239
H	2.494910	3.238558	1.726228
H	1.444334	3.097160	-1.161575
$end

$rem
JOBTYPE		SP
EXCHANGE	HF
CORRELATION	pRIMP2
BASIS		cc-pvtz
METHOD		rimp2
AUX_BASIS	rimp2-cc-pvtz
SOLVENT_METHOD	PCM
PURECART	11111
SYMMETRY	false
MEM_TOTAL	110000
SCF_CONVERGENCE = 6
THRESH=10
$end

$solvent
dielectric 4.90
$end
--------------------------------------------------------------

             Standard Nuclear Orientation (Angstroms)
    I     Atom           X                Y                Z
 ----------------------------------------------------------------
    1      C      -0.2657790000    -3.8667250000     0.7281380000
    2      C       0.2092250000    -3.7039630000    -0.5757260000
    3      C       0.3648750000    -2.3570560000    -1.0022900000
    4      H       0.4451760000    -4.5610920000    -1.2244860000
    5      C       0.0000000000    -1.4406640000     0.0000000000
    6      S      -0.5282360000    -2.2869570000     1.4513430000
    7      C       0.8628080000    -1.9787430000    -2.3696830000
    8      H       1.0833680000    -2.8786780000    -2.9758830000
    9      H       1.7935220000    -1.3760150000    -2.3171420000
   10      H       0.1163750000    -1.3757280000    -2.9277870000
   11      H      -0.4712510000    -4.7834370000     1.2919900000
   12      C       0.0000000000     0.0000000000     0.0000000000
   13      C       0.3650030000     0.7826740000     1.0994460000
   14      C       0.9498850000     2.0369120000     0.7767210000
   15      H       0.2091350000     0.4484310000     2.1360880000
   16      C       1.0431590000     2.2368860000    -0.6125460000
   17      S       0.3982970000     0.8540940000    -1.4868090000
   18      C       1.4096090000     3.0227380000     1.8146090000
   19      H       1.2297260000     2.6369800000     2.8366760000
   20      H       0.8773460000     3.9928700000     1.7262390000
   21      H       2.4949100000     3.2385580000     1.7262280000
   22      H       1.4443340000     3.0971600000    -1.1615750000
 ----------------------------------------------------------------

   10   -1179.6702606218      5.31e-07  Convergence criterion met
 Total energy in the final basis set =    -1179.6702606218
        RIMP2         total energy =     -1181.6549463432 a.u.

                    Orbital Energies (a.u.)
 --------------------------------------------------------------

 Alpha MOs
 -- Occupied --
-91.9839 -91.9823 -11.2799 -11.2784 -11.2695 -11.2663 -11.2520 -11.2500
-11.2439 -11.2423 -11.2291 -11.2276  -8.9840  -8.9824  -6.6648  -6.6642
 -6.6636  -6.6634  -6.6628  -6.6621  -1.1822  -1.1491  -1.0428  -1.0240
 -0.9985  -0.9523  -0.9133  -0.8950  -0.7985  -0.7643  -0.7213  -0.6958
 -0.6611  -0.6160  -0.5842  -0.5808  -0.5777  -0.5695  -0.5520  -0.5335
 -0.5249  -0.5206  -0.5121  -0.4957  -0.4837  -0.4655  -0.4498  -0.3691
 -0.3419  -0.3383  -0.2682

          Ground-State Mulliken Net Atomic Charges

     Atom                 Charge (a.u.)
  ----------------------------------------
      1 C                    -0.216623
      2 C                    -0.250758
      3 C                     0.046619
      4 H                     0.184664
      5 C                    -0.033883
      6 S                     0.005071
      7 C                    -0.308638
      8 H                     0.111750
      9 H                     0.120678
     10 H                     0.109497
     11 H                     0.205425
     12 C                     0.022659
     13 C                    -0.231490
     14 C                     0.021989
     15 H                     0.180278
     16 C                    -0.237428
     17 S                     0.021180
     18 C                    -0.269435
     19 H                     0.102975
     20 H                     0.108490
     21 H                     0.107716
     22 H                     0.199263
  ----------------------------------------
  Sum of atomic charges =     0.000000

                    Cartesian Multipole Moments
 -----------------------------------------------------------------
    Charge (ESU x 10^10)
                -0.0000
    Dipole Moment (Debye)
         X       1.4522      Y       0.3958      Z      -0.1001
       Tot       1.5085
    Quadrupole Moments (Debye-Ang)
        XX     -89.9079     XY       3.4384     YY     -71.6506
        XZ      -1.8056     YZ       2.9814     ZZ     -80.6613

 Total job time:  563.31s(wall), 561.16s(cpu)
        *  Thank you very much for using Q-Chem.  Have a nice day.  *
