 Q-Chem 5.4, Q-Chem, Inc., Pleasanton, CA (2021)
 Q-Chem 5.4.0 for Intel X86 EM64T Linux

User input:
--------------------------------------------------------------
$molecule
0 1
C	0.593324	-3.866725	0.498788
C	-0.469446	-3.703963	-0.393517
C	-0.817050	-2.357056	-0.685674
H	-0.998381	-4.561092	-0.837128
C	-0.000000	-1.440664	-0.000000
S	1.183149	-2.286957	0.992768
C	-1.931676	-1.978743	-1.621254
H	-2.425882	-2.878678	-2.035845
H	-1.563980	-1.376015	-2.477868
H	-2.711417	-1.375728	-1.110719
H	1.052896	-4.783437	0.884718
C	0.000000	0.000000	0.000000
C	0.555137	0.661535	1.099446
C	1.444710	1.721658	0.776721
H	0.318072	0.379023	2.136088
C	1.586563	1.890676	-0.612546
S	0.605781	0.721904	-1.486809
C	2.143920	2.554907	1.814609
H	1.870325	2.228851	2.836676
H	1.880882	3.629742	1.726239
H	3.248098	2.482476	1.726228
H	2.196723	2.617806	-1.161575
$end

$rem
JOBTYPE		SP
EXCHANGE	HF
CORRELATION	pRIMP2
BASIS		cc-pvtz
METHOD		rimp2
AUX_BASIS	rimp2-cc-pvtz
SOLVENT_METHOD	PCM
PURECART	11111
SYMMETRY	false
MEM_TOTAL	110000
SCF_CONVERGENCE = 6
THRESH=10
$end

$solvent
dielectric 4.90
$end
--------------------------------------------------------------

             Standard Nuclear Orientation (Angstroms)
    I     Atom           X                Y                Z
 ----------------------------------------------------------------
    1      C       0.5933240000    -3.8667250000     0.4987880000
    2      C      -0.4694460000    -3.7039630000    -0.3935170000
    3      C      -0.8170500000    -2.3570560000    -0.6856740000
    4      H      -0.9983810000    -4.5610920000    -0.8371280000
    5      C       0.0000000000    -1.4406640000     0.0000000000
    6      S       1.1831490000    -2.2869570000     0.9927680000
    7      C      -1.9316760000    -1.9787430000    -1.6212540000
    8      H      -2.4258820000    -2.8786780000    -2.0358450000
    9      H      -1.5639800000    -1.3760150000    -2.4778680000
   10      H      -2.7114170000    -1.3757280000    -1.1107190000
   11      H       1.0528960000    -4.7834370000     0.8847180000
   12      C       0.0000000000     0.0000000000     0.0000000000
   13      C       0.5551370000     0.6615350000     1.0994460000
   14      C       1.4447100000     1.7216580000     0.7767210000
   15      H       0.3180720000     0.3790230000     2.1360880000
   16      C       1.5865630000     1.8906760000    -0.6125460000
   17      S       0.6057810000     0.7219040000    -1.4868090000
   18      C       2.1439200000     2.5549070000     1.8146090000
   19      H       1.8703250000     2.2288510000     2.8366760000
   20      H       1.8808820000     3.6297420000     1.7262390000
   21      H       3.2480980000     2.4824760000     1.7262280000
   22      H       2.1967230000     2.6178060000    -1.1615750000
 ----------------------------------------------------------------

   10   -1179.6579194163      5.46e-07  Convergence criterion met
 Total energy in the final basis set =    -1179.6579194163
        RIMP2         total energy =     -1181.6439166807 a.u.

                    Orbital Energies (a.u.)
 --------------------------------------------------------------

 Alpha MOs
 -- Occupied --
-91.9847 -91.9821 -11.2761 -11.2728 -11.2692 -11.2664 -11.2534 -11.2502
-11.2447 -11.2396 -11.2301 -11.2279  -8.9847  -8.9818  -6.6656  -6.6649
 -6.6644  -6.6627  -6.6621  -6.6615  -1.1836  -1.1481  -1.0428  -1.0212
 -1.0001  -0.9502  -0.9144  -0.8917  -0.7983  -0.7600  -0.7275  -0.6909
 -0.6597  -0.6181  -0.5838  -0.5801  -0.5734  -0.5695  -0.5507  -0.5344
 -0.5274  -0.5174  -0.5082  -0.4936  -0.4766  -0.4676  -0.4579  -0.3470
 -0.3432  -0.3392  -0.2792

          Ground-State Mulliken Net Atomic Charges

     Atom                 Charge (a.u.)
  ----------------------------------------
      1 C                    -0.227313
      2 C                    -0.244077
      3 C                     0.024320
      4 H                     0.182450
      5 C                    -0.008985
      6 S                     0.019886
      7 C                    -0.292132
      8 H                     0.108963
      9 H                     0.108369
     10 H                     0.110541
     11 H                     0.203167
     12 C                    -0.020460
     13 C                    -0.288249
     14 C                     0.054457
     15 H                     0.195175
     16 C                    -0.220500
     17 S                     0.041221
     18 C                    -0.266405
     19 H                     0.103417
     20 H                     0.108280
     21 H                     0.108324
     22 H                     0.199550
  ----------------------------------------
  Sum of atomic charges =     0.000000

                    Cartesian Multipole Moments
 -----------------------------------------------------------------
    Charge (ESU x 10^10)
                -0.0000
    Dipole Moment (Debye)
         X       0.5071      Y       0.6747      Z       0.5595
       Tot       1.0126
    Quadrupole Moments (Debye-Ang)
        XX     -84.0763     XY       7.5736     YY     -74.3821
        XZ       3.6767     YZ       2.1553     ZZ     -83.7299

 Total job time:  562.58s(wall), 558.42s(cpu)
        *  Thank you very much for using Q-Chem.  Have a nice day.  *
