 Q-Chem 5.4, Q-Chem, Inc., Pleasanton, CA (2021)
 Q-Chem 5.4.0 for Intel X86 EM64T Linux

User input:
--------------------------------------------------------------
$molecule
0 1
C	-0.133897	-3.866725	-0.763475
C	0.106669	-3.703963	0.603206
C	0.185154	-2.357056	1.050446
H	0.226709	-4.561092	1.283024
C	0.000000	-1.440664	0.000000
S	-0.268206	-2.286957	-1.521018
C	0.437628	-1.978743	2.483610
H	0.549717	-2.878678	3.118875
H	-0.394664	-1.376015	2.903464
H	1.363110	-1.375728	2.593726
H	-0.237880	-4.783437	-1.354522
C	0.000000	0.000000	0.000000
C	0.295399	0.811508	1.099446
C	0.768742	2.111949	0.776721
H	0.169256	0.464952	2.136088
C	0.844232	2.319291	-0.612546
S	0.322342	0.885558	-1.486809
C	1.140796	3.134091	1.814609
H	0.995218	2.734123	2.836676
H	0.526006	4.054142	1.726239
H	2.203157	3.443680	1.726228
H	1.168902	3.211257	-1.161575
$end

$rem
JOBTYPE		SP
EXCHANGE	HF
CORRELATION	pRIMP2
BASIS		cc-pvtz
METHOD		rimp2
AUX_BASIS	rimp2-cc-pvtz
SOLVENT_METHOD	PCM
PURECART	11111
SYMMETRY	false
MEM_TOTAL	110000
SCF_CONVERGENCE = 6
THRESH=10
$end

$solvent
dielectric 4.90
$end
--------------------------------------------------------------

             Standard Nuclear Orientation (Angstroms)
    I     Atom           X                Y                Z
 ----------------------------------------------------------------
    1      C      -0.1338970000    -3.8667250000    -0.7634750000
    2      C       0.1066690000    -3.7039630000     0.6032060000
    3      C       0.1851540000    -2.3570560000     1.0504460000
    4      H       0.2267090000    -4.5610920000     1.2830240000
    5      C       0.0000000000    -1.4406640000     0.0000000000
    6      S      -0.2682060000    -2.2869570000    -1.5210180000
    7      C       0.4376280000    -1.9787430000     2.4836100000
    8      H       0.5497170000    -2.8786780000     3.1188750000
    9      H      -0.3946640000    -1.3760150000     2.9034640000
   10      H       1.3631100000    -1.3757280000     2.5937260000
   11      H      -0.2378800000    -4.7834370000    -1.3545220000
   12      C       0.0000000000     0.0000000000     0.0000000000
   13      C       0.2953990000     0.8115080000     1.0994460000
   14      C       0.7687420000     2.1119490000     0.7767210000
   15      H       0.1692560000     0.4649520000     2.1360880000
   16      C       0.8442320000     2.3192910000    -0.6125460000
   17      S       0.3223420000     0.8855580000    -1.4868090000
   18      C       1.1407960000     3.1340910000     1.8146090000
   19      H       0.9952180000     2.7341230000     2.8366760000
   20      H       0.5260060000     4.0541420000     1.7262390000
   21      H       2.2031570000     3.4436800000     1.7262280000
   22      H       1.1689020000     3.2112570000    -1.1615750000
 ----------------------------------------------------------------

   10   -1179.6771272899      4.79e-07  Convergence criterion met
 Total energy in the final basis set =    -1179.6771272899
        RIMP2         total energy =     -1181.6594976294 a.u.

                    Orbital Energies (a.u.)
 --------------------------------------------------------------

 Alpha MOs
 -- Occupied --
-91.9853 -91.9835 -11.2812 -11.2785 -11.2713 -11.2667 -11.2525 -11.2524
-11.2433 -11.2419 -11.2314 -11.2297  -8.9852  -8.9836  -6.6662  -6.6656
 -6.6650  -6.6645  -6.6640  -6.6633  -1.1823  -1.1501  -1.0425  -1.0274
 -0.9958  -0.9562  -0.9145  -0.8947  -0.8026  -0.7569  -0.7274  -0.7014
 -0.6613  -0.6141  -0.5915  -0.5822  -0.5704  -0.5636  -0.5520  -0.5404
 -0.5292  -0.5240  -0.5045  -0.4915  -0.4851  -0.4767  -0.4505  -0.3699
 -0.3479  -0.3370  -0.2682

          Ground-State Mulliken Net Atomic Charges

     Atom                 Charge (a.u.)
  ----------------------------------------
      1 C                    -0.216936
      2 C                    -0.249172
      3 C                     0.061935
      4 H                     0.184542
      5 C                    -0.038930
      6 S                     0.008271
      7 C                    -0.314135
      8 H                     0.117924
      9 H                     0.107274
     10 H                     0.113617
     11 H                     0.206839
     12 C                     0.040080
     13 C                    -0.274132
     14 C                     0.042845
     15 H                     0.195710
     16 C                    -0.251838
     17 S                     0.016889
     18 C                    -0.269747
     19 H                     0.101665
     20 H                     0.108678
     21 H                     0.108932
     22 H                     0.199690
  ----------------------------------------
  Sum of atomic charges =     0.000000

                    Cartesian Multipole Moments
 -----------------------------------------------------------------
    Charge (ESU x 10^10)
                -0.0000
    Dipole Moment (Debye)
         X       0.9630      Y       0.2812      Z       2.9582
       Tot       3.1237
    Quadrupole Moments (Debye-Ang)
        XX     -91.2234     XY       3.2157     YY     -69.9091
        XZ       1.4861     YZ      -1.2626     ZZ     -80.2791

 Total job time:  567.84s(wall), 565.17s(cpu)
        *  Thank you very much for using Q-Chem.  Have a nice day.  *
