 Q-Chem 5.4, Q-Chem, Inc., Pleasanton, CA (2021)
 Q-Chem 5.4.0 for Intel X86 EM64T Linux

User input:
--------------------------------------------------------------
$molecule
0 1
C	0.728138	-3.866725	0.265779
C	-0.575726	-3.703963	-0.209225
C	-1.002290	-2.357056	-0.364875
H	-1.224486	-4.561092	-0.445176
C	0.000000	-1.440664	0.000000
S	1.451343	-2.286957	0.528236
C	-2.369683	-1.978743	-0.862808
H	-2.975883	-2.878678	-1.083368
H	-2.317142	-1.376015	-1.793522
H	-2.927787	-1.375728	-0.116375
H	1.291990	-4.783437	0.471251
C	0.000000	0.000000	0.000000
C	0.295399	0.811508	1.099446
C	0.768742	2.111949	0.776721
H	0.169256	0.464952	2.136088
C	0.844232	2.319291	-0.612546
S	0.322342	0.885558	-1.486809
C	1.140796	3.134091	1.814609
H	0.995218	2.734123	2.836676
H	0.526006	4.054142	1.726239
H	2.203157	3.443680	1.726228
H	1.168902	3.211257	-1.161575
$end

$rem
JOBTYPE		SP
EXCHANGE	HF
CORRELATION	pRIMP2
BASIS		cc-pvtz
METHOD		rimp2
AUX_BASIS	rimp2-cc-pvtz
SOLVENT_METHOD	PCM
PURECART	11111
SYMMETRY	false
MEM_TOTAL	110000
SCF_CONVERGENCE = 6
THRESH=10
$end

$solvent
dielectric 4.90
$end
--------------------------------------------------------------

             Standard Nuclear Orientation (Angstroms)
    I     Atom           X                Y                Z
 ----------------------------------------------------------------
    1      C       0.7281380000    -3.8667250000     0.2657790000
    2      C      -0.5757260000    -3.7039630000    -0.2092250000
    3      C      -1.0022900000    -2.3570560000    -0.3648750000
    4      H      -1.2244860000    -4.5610920000    -0.4451760000
    5      C       0.0000000000    -1.4406640000     0.0000000000
    6      S       1.4513430000    -2.2869570000     0.5282360000
    7      C      -2.3696830000    -1.9787430000    -0.8628080000
    8      H      -2.9758830000    -2.8786780000    -1.0833680000
    9      H      -2.3171420000    -1.3760150000    -1.7935220000
   10      H      -2.9277870000    -1.3757280000    -0.1163750000
   11      H       1.2919900000    -4.7834370000     0.4712510000
   12      C       0.0000000000     0.0000000000     0.0000000000
   13      C       0.2953990000     0.8115080000     1.0994460000
   14      C       0.7687420000     2.1119490000     0.7767210000
   15      H       0.1692560000     0.4649520000     2.1360880000
   16      C       0.8442320000     2.3192910000    -0.6125460000
   17      S       0.3223420000     0.8855580000    -1.4868090000
   18      C       1.1407960000     3.1340910000     1.8146090000
   19      H       0.9952180000     2.7341230000     2.8366760000
   20      H       0.5260060000     4.0541420000     1.7262390000
   21      H       2.2031570000     3.4436800000     1.7262280000
   22      H       1.1689020000     3.2112570000    -1.1615750000
 ----------------------------------------------------------------

   10   -1179.6794860465      5.03e-07  Convergence criterion met
 Total energy in the final basis set =    -1179.6794860465
        RIMP2         total energy =     -1181.6588485617 a.u.

                    Orbital Energies (a.u.)
 --------------------------------------------------------------

 Alpha MOs
 -- Occupied --
-91.9847 -91.9843 -11.2762 -11.2721 -11.2716 -11.2671 -11.2518 -11.2511
-11.2440 -11.2412 -11.2291 -11.2290  -8.9843  -8.9839  -6.6652  -6.6648
 -6.6646  -6.6642  -6.6640  -6.6636  -1.1793  -1.1492  -1.0404  -1.0226
 -0.9978  -0.9526  -0.9139  -0.8919  -0.8000  -0.7563  -0.7284  -0.6932
 -0.6619  -0.6166  -0.5827  -0.5791  -0.5719  -0.5693  -0.5516  -0.5330
 -0.5277  -0.5190  -0.5078  -0.4929  -0.4848  -0.4654  -0.4614  -0.3466
 -0.3376  -0.3294  -0.2953

          Ground-State Mulliken Net Atomic Charges

     Atom                 Charge (a.u.)
  ----------------------------------------
      1 C                    -0.208843
      2 C                    -0.251631
      3 C                     0.047746
      4 H                     0.183257
      5 C                    -0.046782
      6 S                     0.026864
      7 C                    -0.283728
      8 H                     0.107017
      9 H                     0.109168
     10 H                     0.110814
     11 H                     0.204354
     12 C                     0.007826
     13 C                    -0.271393
     14 C                     0.041090
     15 H                     0.187804
     16 C                    -0.238175
     17 S                     0.027443
     18 C                    -0.269908
     19 H                     0.102865
     20 H                     0.107767
     21 H                     0.108348
     22 H                     0.198096
  ----------------------------------------
  Sum of atomic charges =     0.000000

                    Cartesian Multipole Moments
 -----------------------------------------------------------------
    Charge (ESU x 10^10)
                -0.0000
    Dipole Moment (Debye)
         X      -0.6946      Y       0.3024      Z       0.9424
       Tot       1.2092
    Quadrupole Moments (Debye-Ang)
        XX     -85.6209     XY       5.5577     YY     -70.1238
        XZ       2.4823     YZ       1.6854     ZZ     -85.8811

 Total job time:  550.80s(wall), 545.84s(cpu)
        *  Thank you very much for using Q-Chem.  Have a nice day.  *
