 Q-Chem 5.4, Q-Chem, Inc., Pleasanton, CA (2021)
 Q-Chem 5.4.0 for Intel X86 EM64T Linux

User input:
--------------------------------------------------------------
$molecule
0 1
C	0.498788	-3.866725	-0.593324
C	-0.393517	-3.703963	0.469446
C	-0.685674	-2.357056	0.817050
H	-0.837128	-4.561092	0.998381
C	0.000000	-1.440664	0.000000
S	0.992768	-2.286957	-1.183149
C	-1.621254	-1.978743	1.931676
H	-2.035845	-2.878678	2.425882
H	-2.477868	-1.376015	1.563980
H	-1.110719	-1.375728	2.711417
H	0.884718	-4.783437	-1.052896
C	0.000000	0.000000	0.000000
C	0.431829	0.747884	1.099446
C	1.123799	1.946373	0.776721
H	0.247423	0.428497	2.136088
C	1.234147	2.137457	-0.612546
S	0.471221	0.816130	-1.486809
C	1.667694	2.888380	1.814609
H	1.454874	2.519768	2.836676
H	1.222009	3.901210	1.726239
H	2.767675	3.008788	1.726228
H	1.708773	2.959493	-1.161575
$end

$rem
JOBTYPE		SP
EXCHANGE	HF
CORRELATION	pRIMP2
BASIS		cc-pvtz
METHOD		rimp2
AUX_BASIS	rimp2-cc-pvtz
SOLVENT_METHOD	PCM
PURECART	11111
SYMMETRY	false
MEM_TOTAL	110000
SCF_CONVERGENCE = 6
THRESH=10
$end

$solvent
dielectric 4.90
$end
--------------------------------------------------------------

             Standard Nuclear Orientation (Angstroms)
    I     Atom           X                Y                Z
 ----------------------------------------------------------------
    1      C       0.4987880000    -3.8667250000    -0.5933240000
    2      C      -0.3935170000    -3.7039630000     0.4694460000
    3      C      -0.6856740000    -2.3570560000     0.8170500000
    4      H      -0.8371280000    -4.5610920000     0.9983810000
    5      C       0.0000000000    -1.4406640000     0.0000000000
    6      S       0.9927680000    -2.2869570000    -1.1831490000
    7      C      -1.6212540000    -1.9787430000     1.9316760000
    8      H      -2.0358450000    -2.8786780000     2.4258820000
    9      H      -2.4778680000    -1.3760150000     1.5639800000
   10      H      -1.1107190000    -1.3757280000     2.7114170000
   11      H       0.8847180000    -4.7834370000    -1.0528960000
   12      C       0.0000000000     0.0000000000     0.0000000000
   13      C       0.4318290000     0.7478840000     1.0994460000
   14      C       1.1237990000     1.9463730000     0.7767210000
   15      H       0.2474230000     0.4284970000     2.1360880000
   16      C       1.2341470000     2.1374570000    -0.6125460000
   17      S       0.4712210000     0.8161300000    -1.4868090000
   18      C       1.6676940000     2.8883800000     1.8146090000
   19      H       1.4548740000     2.5197680000     2.8366760000
   20      H       1.2220090000     3.9012100000     1.7262390000
   21      H       2.7676750000     3.0087880000     1.7262280000
   22      H       1.7087730000     2.9594930000    -1.1615750000
 ----------------------------------------------------------------

   10   -1179.6687017193      5.25e-07  Convergence criterion met
 Total energy in the final basis set =    -1179.6687017193
        RIMP2         total energy =     -1181.6521927340 a.u.

                    Orbital Energies (a.u.)
 --------------------------------------------------------------

 Alpha MOs
 -- Occupied --
-91.9864 -91.9831 -11.2772 -11.2763 -11.2710 -11.2657 -11.2535 -11.2482
-11.2459 -11.2408 -11.2301 -11.2287  -8.9862  -8.9829  -6.6671  -6.6665
 -6.6660  -6.6637  -6.6631  -6.6625  -1.1826  -1.1489  -1.0430  -1.0231
 -0.9965  -0.9561  -0.9114  -0.8935  -0.8020  -0.7529  -0.7314  -0.6971
 -0.6597  -0.6156  -0.5876  -0.5804  -0.5699  -0.5650  -0.5518  -0.5370
 -0.5309  -0.5199  -0.5078  -0.4904  -0.4813  -0.4736  -0.4543  -0.3621
 -0.3407  -0.3371  -0.2741

          Ground-State Mulliken Net Atomic Charges

     Atom                 Charge (a.u.)
  ----------------------------------------
      1 C                    -0.230078
      2 C                    -0.245658
      3 C                     0.027045
      4 H                     0.182601
      5 C                    -0.017360
      6 S                     0.021334
      7 C                    -0.294233
      8 H                     0.109780
      9 H                     0.111170
     10 H                     0.104834
     11 H                     0.203706
     12 C                    -0.023112
     13 C                    -0.194463
     14 C                     0.009257
     15 H                     0.194048
     16 C                    -0.217069
     17 S                     0.009737
     18 C                    -0.270420
     19 H                     0.102164
     20 H                     0.108477
     21 H                     0.108153
     22 H                     0.200086
  ----------------------------------------
  Sum of atomic charges =     0.000000

                    Cartesian Multipole Moments
 -----------------------------------------------------------------
    Charge (ESU x 10^10)
                -0.0000
    Dipole Moment (Debye)
         X       0.2456      Y       0.7470      Z       2.5786
       Tot       2.6958
    Quadrupole Moments (Debye-Ang)
        XX     -87.2101     XY       6.3616     YY     -72.6831
        XZ      -2.6182     YZ      -0.8493     ZZ     -82.7128

 Total job time:  550.76s(wall), 546.92s(cpu)
        *  Thank you very much for using Q-Chem.  Have a nice day.  *
