 Q-Chem 5.4, Q-Chem, Inc., Pleasanton, CA (2021)
 Q-Chem 5.4.0 for Intel X86 EM64T Linux

User input:
--------------------------------------------------------------
$molecule
0 1
C	-0.498788	-3.866725	0.593324
C	0.393517	-3.703963	-0.469446
C	0.685674	-2.357056	-0.817050
H	0.837128	-4.561092	-0.998381
C	0.000000	-1.440664	0.000000
S	-0.992768	-2.286957	1.183149
C	1.621254	-1.978743	-1.931676
H	2.035845	-2.878678	-2.425882
H	2.477868	-1.376015	-1.563980
H	1.110719	-1.375728	-2.711417
H	-0.884718	-4.783437	1.052896
C	0.000000	0.000000	0.000000
C	0.000033	0.863600	1.099446
C	0.000052	2.247508	0.776721
H	0.000026	0.494801	2.136088
C	0.000074	2.468165	-0.612546
S	0.000024	0.942399	-1.486809
C	0.000075	3.335257	1.814609
H	0.000074	2.909620	2.836676
H	-0.892314	3.989552	1.726239
H	0.892483	3.989525	1.726228
H	0.000094	3.417382	-1.161575
$end

$rem
JOBTYPE		SP
EXCHANGE	HF
CORRELATION	pRIMP2
BASIS		cc-pvtz
METHOD		rimp2
AUX_BASIS	rimp2-cc-pvtz
SOLVENT_METHOD	PCM
PURECART	11111
SYMMETRY	false
MEM_TOTAL	110000
SCF_CONVERGENCE = 6
THRESH=10
$end

$solvent
dielectric 4.90
$end
--------------------------------------------------------------

             Standard Nuclear Orientation (Angstroms)
    I     Atom           X                Y                Z
 ----------------------------------------------------------------
    1      C      -0.4987880000    -3.8667250000     0.5933240000
    2      C       0.3935170000    -3.7039630000    -0.4694460000
    3      C       0.6856740000    -2.3570560000    -0.8170500000
    4      H       0.8371280000    -4.5610920000    -0.9983810000
    5      C       0.0000000000    -1.4406640000     0.0000000000
    6      S      -0.9927680000    -2.2869570000     1.1831490000
    7      C       1.6212540000    -1.9787430000    -1.9316760000
    8      H       2.0358450000    -2.8786780000    -2.4258820000
    9      H       2.4778680000    -1.3760150000    -1.5639800000
   10      H       1.1107190000    -1.3757280000    -2.7114170000
   11      H      -0.8847180000    -4.7834370000     1.0528960000
   12      C       0.0000000000     0.0000000000     0.0000000000
   13      C       0.0000330000     0.8636000000     1.0994460000
   14      C       0.0000520000     2.2475080000     0.7767210000
   15      H       0.0000260000     0.4948010000     2.1360880000
   16      C       0.0000740000     2.4681650000    -0.6125460000
   17      S       0.0000240000     0.9423990000    -1.4868090000
   18      C       0.0000750000     3.3352570000     1.8146090000
   19      H       0.0000740000     2.9096200000     2.8366760000
   20      H      -0.8923140000     3.9895520000     1.7262390000
   21      H       0.8924830000     3.9895250000     1.7262280000
   22      H       0.0000940000     3.4173820000    -1.1615750000
 ----------------------------------------------------------------

   10   -1179.6868828981      5.25e-07  Convergence criterion met
 Total energy in the final basis set =    -1179.6868828981
        RIMP2         total energy =     -1181.6659630438 a.u.

                    Orbital Energies (a.u.)
 --------------------------------------------------------------

 Alpha MOs
 -- Occupied --
-91.9855 -91.9852 -11.2823 -11.2762 -11.2723 -11.2636 -11.2534 -11.2516
-11.2430 -11.2411 -11.2294 -11.2289  -8.9852  -8.9849  -6.6661  -6.6658
 -6.6656  -6.6652  -6.6649  -6.6646  -1.1801  -1.1499  -1.0412  -1.0242
 -0.9987  -0.9529  -0.9147  -0.8935  -0.8007  -0.7619  -0.7230  -0.6950
 -0.6629  -0.6161  -0.5835  -0.5779  -0.5768  -0.5697  -0.5524  -0.5337
 -0.5261  -0.5198  -0.5095  -0.4952  -0.4887  -0.4675  -0.4562  -0.3579
 -0.3426  -0.3395  -0.2773

          Ground-State Mulliken Net Atomic Charges

     Atom                 Charge (a.u.)
  ----------------------------------------
      1 C                    -0.215223
      2 C                    -0.248002
      3 C                     0.028297
      4 H                     0.184731
      5 C                    -0.023607
      6 S                     0.020103
      7 C                    -0.300177
      8 H                     0.110964
      9 H                     0.117063
     10 H                     0.112468
     11 H                     0.205262
     12 C                     0.031417
     13 C                    -0.257582
     14 C                     0.024348
     15 H                     0.185834
     16 C                    -0.244547
     17 S                     0.022470
     18 C                    -0.271731
     19 H                     0.102992
     20 H                     0.108511
     21 H                     0.108139
     22 H                     0.198271
  ----------------------------------------
  Sum of atomic charges =     0.000000

                    Cartesian Multipole Moments
 -----------------------------------------------------------------
    Charge (ESU x 10^10)
                -0.0000
    Dipole Moment (Debye)
         X       0.9815      Y       0.1763      Z       0.2389
       Tot       1.0254
    Quadrupole Moments (Debye-Ang)
        XX     -90.0168     XY      -1.3743     YY     -68.6754
        XZ      -3.3321     YZ       2.6808     ZZ     -82.7248

 Total job time:  577.48s(wall), 574.68s(cpu)
        *  Thank you very much for using Q-Chem.  Have a nice day.  *
