 Q-Chem 5.4, Q-Chem, Inc., Pleasanton, CA (2021)
 Q-Chem 5.4.0 for Intel X86 EM64T Linux

User input:
--------------------------------------------------------------
$molecule
0 1
C	0.593324	-3.866725	0.498788
C	-0.469446	-3.703963	-0.393517
C	-0.817050	-2.357056	-0.685674
H	-0.998381	-4.561092	-0.837128
C	-0.000000	-1.440664	-0.000000
S	1.183149	-2.286957	0.992768
C	-1.931676	-1.978743	-1.621254
H	-2.425882	-2.878678	-2.035845
H	-1.563980	-1.376015	-2.477868
H	-2.711417	-1.375728	-1.110719
H	1.052896	-4.783437	0.884718
C	0.000000	0.000000	0.000000
C	0.075300	0.860311	1.099446
C	0.195935	2.238951	0.776721
H	0.043151	0.492916	2.136088
C	0.215188	2.458766	-0.612546
S	0.082160	0.938811	-1.486809
C	0.290762	3.322559	1.814609
H	0.253664	2.898542	2.836676
H	-0.541206	4.052140	1.726239
H	1.236797	3.896558	1.726228
H	0.297938	3.404370	-1.161575
$end

$rem
JOBTYPE		SP
EXCHANGE	HF
CORRELATION	pRIMP2
BASIS		cc-pvtz
METHOD		rimp2
AUX_BASIS	rimp2-cc-pvtz
SOLVENT_METHOD	PCM
PURECART	11111
SYMMETRY	false
MEM_TOTAL	110000
SCF_CONVERGENCE = 6
THRESH=10
$end

$solvent
dielectric 4.90
$end
--------------------------------------------------------------

             Standard Nuclear Orientation (Angstroms)
    I     Atom           X                Y                Z
 ----------------------------------------------------------------
    1      C       0.5933240000    -3.8667250000     0.4987880000
    2      C      -0.4694460000    -3.7039630000    -0.3935170000
    3      C      -0.8170500000    -2.3570560000    -0.6856740000
    4      H      -0.9983810000    -4.5610920000    -0.8371280000
    5      C       0.0000000000    -1.4406640000     0.0000000000
    6      S       1.1831490000    -2.2869570000     0.9927680000
    7      C      -1.9316760000    -1.9787430000    -1.6212540000
    8      H      -2.4258820000    -2.8786780000    -2.0358450000
    9      H      -1.5639800000    -1.3760150000    -2.4778680000
   10      H      -2.7114170000    -1.3757280000    -1.1107190000
   11      H       1.0528960000    -4.7834370000     0.8847180000
   12      C       0.0000000000     0.0000000000     0.0000000000
   13      C       0.0753000000     0.8603110000     1.0994460000
   14      C       0.1959350000     2.2389510000     0.7767210000
   15      H       0.0431510000     0.4929160000     2.1360880000
   16      C       0.2151880000     2.4587660000    -0.6125460000
   17      S       0.0821600000     0.9388110000    -1.4868090000
   18      C       0.2907620000     3.3225590000     1.8146090000
   19      H       0.2536640000     2.8985420000     2.8366760000
   20      H      -0.5412060000     4.0521400000     1.7262390000
   21      H       1.2367970000     3.8965580000     1.7262280000
   22      H       0.2979380000     3.4043700000    -1.1615750000
 ----------------------------------------------------------------

   10   -1179.6868051586      5.20e-07  Convergence criterion met
 Total energy in the final basis set =    -1179.6868051586
        RIMP2         total energy =     -1181.6653073625 a.u.

                    Orbital Energies (a.u.)
 --------------------------------------------------------------

 Alpha MOs
 -- Occupied --
-91.9856 -91.9853 -11.2811 -11.2749 -11.2722 -11.2643 -11.2533 -11.2514
-11.2426 -11.2416 -11.2294 -11.2289  -8.9852  -8.9849  -6.6661  -6.6658
 -6.6656  -6.6652  -6.6649  -6.6646  -1.1796  -1.1498  -1.0408  -1.0237
 -0.9985  -0.9529  -0.9146  -0.8929  -0.8007  -0.7603  -0.7246  -0.6945
 -0.6628  -0.6162  -0.5831  -0.5782  -0.5749  -0.5696  -0.5522  -0.5335
 -0.5266  -0.5196  -0.5085  -0.4946  -0.4885  -0.4672  -0.4583  -0.3508
 -0.3431  -0.3384  -0.2826

          Ground-State Mulliken Net Atomic Charges

     Atom                 Charge (a.u.)
  ----------------------------------------
      1 C                    -0.214398
      2 C                    -0.247449
      3 C                     0.027588
      4 H                     0.184555
      5 C                    -0.025903
      6 S                     0.022733
      7 C                    -0.291513
      8 H                     0.109732
      9 H                     0.111408
     10 H                     0.113768
     11 H                     0.204833
     12 C                     0.021734
     13 C                    -0.260313
     14 C                     0.027435
     15 H                     0.188174
     16 C                    -0.243120
     17 S                     0.024829
     18 C                    -0.271655
     19 H                     0.102923
     20 H                     0.108046
     21 H                     0.108571
     22 H                     0.198021
  ----------------------------------------
  Sum of atomic charges =     0.000000

                    Cartesian Multipole Moments
 -----------------------------------------------------------------
    Charge (ESU x 10^10)
                -0.0000
    Dipole Moment (Debye)
         X      -0.9870      Y       0.2041      Z       0.4479
       Tot       1.1029
    Quadrupole Moments (Debye-Ang)
        XX     -88.7851     XY       2.5739     YY     -68.7457
        XZ       3.4077     YZ       2.4031     ZZ     -83.9237

 Total job time:  548.21s(wall), 544.55s(cpu)
        *  Thank you very much for using Q-Chem.  Have a nice day.  *
