 Q-Chem 5.4, Q-Chem, Inc., Pleasanton, CA (2021)
 Q-Chem 5.4.0 for Intel X86 EM64T Linux

User input:
--------------------------------------------------------------
$molecule
0 1
C	0.264439	-3.866725	0.728625
C	-0.209794	-3.703963	-0.575519
C	-0.364749	-2.357056	-1.002336
H	-0.446060	-4.561092	-1.224165
C	-0.000000	-1.440664	-0.000000
S	0.528253	-2.286957	1.451336
C	-0.862253	-1.978743	-2.369885
H	-1.082953	-2.878678	-2.976034
H	-0.115513	-1.376015	-2.927887
H	-1.792797	-1.375728	-2.317620
H	0.469476	-4.783437	1.292636
C	0.000000	0.000000	0.000000
C	0.365003	0.782674	1.099446
C	0.949885	2.036912	0.776721
H	0.209135	0.448431	2.136088
C	1.043159	2.236886	-0.612546
S	0.398297	0.854094	-1.486809
C	1.409609	3.022738	1.814609
H	1.229726	2.636980	2.836676
H	0.877346	3.992870	1.726239
H	2.494910	3.238558	1.726228
H	1.444334	3.097160	-1.161575
$end

$rem
JOBTYPE		SP
EXCHANGE	HF
CORRELATION	pRIMP2
BASIS		cc-pvtz
METHOD		rimp2
AUX_BASIS	rimp2-cc-pvtz
SOLVENT_METHOD	PCM
PURECART	11111
SYMMETRY	false
MEM_TOTAL	110000
SCF_CONVERGENCE = 6
THRESH=10
$end

$solvent
dielectric 4.90
$end
--------------------------------------------------------------

             Standard Nuclear Orientation (Angstroms)
    I     Atom           X                Y                Z
 ----------------------------------------------------------------
    1      C       0.2644390000    -3.8667250000     0.7286250000
    2      C      -0.2097940000    -3.7039630000    -0.5755190000
    3      C      -0.3647490000    -2.3570560000    -1.0023360000
    4      H      -0.4460600000    -4.5610920000    -1.2241650000
    5      C       0.0000000000    -1.4406640000     0.0000000000
    6      S       0.5282530000    -2.2869570000     1.4513360000
    7      C      -0.8622530000    -1.9787430000    -2.3698850000
    8      H      -1.0829530000    -2.8786780000    -2.9760340000
    9      H      -0.1155130000    -1.3760150000    -2.9278870000
   10      H      -1.7927970000    -1.3757280000    -2.3176200000
   11      H       0.4694760000    -4.7834370000     1.2926360000
   12      C       0.0000000000     0.0000000000     0.0000000000
   13      C       0.3650030000     0.7826740000     1.0994460000
   14      C       0.9498850000     2.0369120000     0.7767210000
   15      H       0.2091350000     0.4484310000     2.1360880000
   16      C       1.0431590000     2.2368860000    -0.6125460000
   17      S       0.3982970000     0.8540940000    -1.4868090000
   18      C       1.4096090000     3.0227380000     1.8146090000
   19      H       1.2297260000     2.6369800000     2.8366760000
   20      H       0.8773460000     3.9928700000     1.7262390000
   21      H       2.4949100000     3.2385580000     1.7262280000
   22      H       1.4443340000     3.0971600000    -1.1615750000
 ----------------------------------------------------------------

   10   -1179.6751269694      5.17e-07  Convergence criterion met
 Total energy in the final basis set =    -1179.6751269694
        RIMP2         total energy =     -1181.6582249412 a.u.

                    Orbital Energies (a.u.)
 --------------------------------------------------------------

 Alpha MOs
 -- Occupied --
-91.9851 -91.9836 -11.2799 -11.2770 -11.2699 -11.2672 -11.2531 -11.2503
-11.2439 -11.2423 -11.2296 -11.2294  -8.9850  -8.9834  -6.6659  -6.6653
 -6.6647  -6.6644  -6.6638  -6.6632  -1.1824  -1.1496  -1.0427  -1.0246
 -0.9995  -0.9517  -0.9150  -0.8944  -0.7997  -0.7648  -0.7214  -0.6945
 -0.6622  -0.6165  -0.5842  -0.5806  -0.5784  -0.5700  -0.5525  -0.5345
 -0.5245  -0.5199  -0.5108  -0.4962  -0.4861  -0.4676  -0.4520  -0.3660
 -0.3437  -0.3405  -0.2691

          Ground-State Mulliken Net Atomic Charges

     Atom                 Charge (a.u.)
  ----------------------------------------
      1 C                    -0.218381
      2 C                    -0.248561
      3 C                     0.037611
      4 H                     0.184049
      5 C                    -0.014517
      6 S                     0.008633
      7 C                    -0.315416
      8 H                     0.114638
      9 H                     0.112079
     10 H                     0.118522
     11 H                     0.205653
     12 C                     0.047004
     13 C                    -0.300183
     14 C                     0.054580
     15 H                     0.181378
     16 C                    -0.253828
     17 S                     0.036078
     18 C                    -0.268486
     19 H                     0.103183
     20 H                     0.108403
     21 H                     0.109117
     22 H                     0.198445
  ----------------------------------------
  Sum of atomic charges =     0.000000

                    Cartesian Multipole Moments
 -----------------------------------------------------------------
    Charge (ESU x 10^10)
                -0.0000
    Dipole Moment (Debye)
         X       0.3620      Y       0.3517      Z      -0.0008
       Tot       0.5047
    Quadrupole Moments (Debye-Ang)
        XX     -89.9449     XY       5.0989     YY     -70.9906
        XZ       2.5725     YZ       3.1226     ZZ     -80.6652

 Total job time:  586.07s(wall), 582.21s(cpu)
        *  Thank you very much for using Q-Chem.  Have a nice day.  *
