 Q-Chem 5.4, Q-Chem, Inc., Pleasanton, CA (2021)
 Q-Chem 5.4.0 for Intel X86 EM64T Linux

User input:
--------------------------------------------------------------
$molecule
0 1
C	-0.135301	-3.866725	0.763228
C	0.106073	-3.703963	-0.603311
C	0.185286	-2.357056	-1.050423
H	0.225783	-4.561092	-1.283188
C	-0.000000	-1.440664	-0.000000
S	-0.268187	-2.286957	1.521021
C	0.438209	-1.978743	-2.483507
H	0.550153	-2.878678	-3.118798
H	1.363906	-1.376015	-2.593381
H	-0.393798	-1.375728	-2.903516
H	-0.239740	-4.783437	1.354194
C	0.000000	0.000000	0.000000
C	0.075300	0.860311	1.099446
C	0.195935	2.238951	0.776721
H	0.043151	0.492916	2.136088
C	0.215188	2.458766	-0.612546
S	0.082160	0.938811	-1.486809
C	0.290762	3.322559	1.814609
H	0.253664	2.898542	2.836676
H	-0.541206	4.052140	1.726239
H	1.236797	3.896558	1.726228
H	0.297938	3.404370	-1.161575
$end

$rem
JOBTYPE		SP
EXCHANGE	HF
CORRELATION	pRIMP2
BASIS		cc-pvtz
METHOD		rimp2
AUX_BASIS	rimp2-cc-pvtz
SOLVENT_METHOD	PCM
PURECART	11111
SYMMETRY	false
MEM_TOTAL	110000
SCF_CONVERGENCE = 6
THRESH=10
$end

$solvent
dielectric 4.90
$end
--------------------------------------------------------------

             Standard Nuclear Orientation (Angstroms)
    I     Atom           X                Y                Z
 ----------------------------------------------------------------
    1      C      -0.1353010000    -3.8667250000     0.7632280000
    2      C       0.1060730000    -3.7039630000    -0.6033110000
    3      C       0.1852860000    -2.3570560000    -1.0504230000
    4      H       0.2257830000    -4.5610920000    -1.2831880000
    5      C       0.0000000000    -1.4406640000     0.0000000000
    6      S      -0.2681870000    -2.2869570000     1.5210210000
    7      C       0.4382090000    -1.9787430000    -2.4835070000
    8      H       0.5501530000    -2.8786780000    -3.1187980000
    9      H       1.3639060000    -1.3760150000    -2.5933810000
   10      H      -0.3937980000    -1.3757280000    -2.9035160000
   11      H      -0.2397400000    -4.7834370000     1.3541940000
   12      C       0.0000000000     0.0000000000     0.0000000000
   13      C       0.0753000000     0.8603110000     1.0994460000
   14      C       0.1959350000     2.2389510000     0.7767210000
   15      H       0.0431510000     0.4929160000     2.1360880000
   16      C       0.2151880000     2.4587660000    -0.6125460000
   17      S       0.0821600000     0.9388110000    -1.4868090000
   18      C       0.2907620000     3.3225590000     1.8146090000
   19      H       0.2536640000     2.8985420000     2.8366760000
   20      H      -0.5412060000     4.0521400000     1.7262390000
   21      H       1.2367970000     3.8965580000     1.7262280000
   22      H       0.2979380000     3.4043700000    -1.1615750000
 ----------------------------------------------------------------

   10   -1179.6859134647      5.39e-07  Convergence criterion met
 Total energy in the final basis set =    -1179.6859134647
        RIMP2         total energy =     -1181.6664572588 a.u.

                    Orbital Energies (a.u.)
 --------------------------------------------------------------

 Alpha MOs
 -- Occupied --
-91.9851 -91.9849 -11.2843 -11.2785 -11.2732 -11.2615 -11.2545 -11.2521
-11.2438 -11.2395 -11.2304 -11.2288  -8.9849  -8.9848  -6.6658  -6.6657
 -6.6652  -6.6652  -6.6646  -6.6645  -1.1815  -1.1501  -1.0422  -1.0260
 -0.9989  -0.9525  -0.9152  -0.8952  -0.8005  -0.7654  -0.7196  -0.6961
 -0.6636  -0.6157  -0.5846  -0.5822  -0.5772  -0.5696  -0.5532  -0.5343
 -0.5236  -0.5210  -0.5115  -0.4963  -0.4905  -0.4675  -0.4508  -0.3708
 -0.3435  -0.3402  -0.2686

          Ground-State Mulliken Net Atomic Charges

     Atom                 Charge (a.u.)
  ----------------------------------------
      1 C                    -0.211551
      2 C                    -0.254691
      3 C                     0.049120
      4 H                     0.185144
      5 C                    -0.022937
      6 S                     0.007749
      7 C                    -0.320758
      8 H                     0.117824
      9 H                     0.119257
     10 H                     0.112780
     11 H                     0.207569
     12 C                     0.059840
     13 C                    -0.268687
     14 C                     0.031626
     15 H                     0.176873
     16 C                    -0.256375
     17 S                     0.019430
     18 C                    -0.271181
     19 H                     0.102782
     20 H                     0.108502
     21 H                     0.108543
     22 H                     0.199141
  ----------------------------------------
  Sum of atomic charges =     0.000000

                    Cartesian Multipole Moments
 -----------------------------------------------------------------
    Charge (ESU x 10^10)
                -0.0000
    Dipole Moment (Debye)
         X       0.4420      Y       0.0092      Z      -0.1689
       Tot       0.4732
    Quadrupole Moments (Debye-Ang)
        XX     -92.4845     XY       0.5293     YY     -68.6012
        XZ      -1.1077     YZ       3.3105     ZZ     -80.0108

 Total job time:  563.56s(wall), 559.77s(cpu)
        *  Thank you very much for using Q-Chem.  Have a nice day.  *
