 Q-Chem 5.4, Q-Chem, Inc., Pleasanton, CA (2021)
 Q-Chem 5.4.0 for Intel X86 EM64T Linux

User input:
--------------------------------------------------------------
$molecule
0 1
C	-0.265779	-3.866725	0.728138
C	0.209225	-3.703963	-0.575726
C	0.364875	-2.357056	-1.002290
H	0.445176	-4.561092	-1.224486
C	-0.000000	-1.440664	-0.000000
S	-0.528236	-2.286957	1.451343
C	0.862808	-1.978743	-2.369683
H	1.083368	-2.878678	-2.975883
H	1.793522	-1.376015	-2.317142
H	0.116375	-1.375728	-2.927787
H	-0.471251	-4.783437	1.291990
C	0.000000	0.000000	0.000000
C	0.075300	0.860311	1.099446
C	0.195935	2.238951	0.776721
H	0.043151	0.492916	2.136088
C	0.215188	2.458766	-0.612546
S	0.082160	0.938811	-1.486809
C	0.290762	3.322559	1.814609
H	0.253664	2.898542	2.836676
H	-0.541206	4.052140	1.726239
H	1.236797	3.896558	1.726228
H	0.297938	3.404370	-1.161575
$end

$rem
JOBTYPE		SP
EXCHANGE	HF
CORRELATION	pRIMP2
BASIS		cc-pvtz
METHOD		rimp2
AUX_BASIS	rimp2-cc-pvtz
SOLVENT_METHOD	PCM
PURECART	11111
SYMMETRY	false
MEM_TOTAL	110000
SCF_CONVERGENCE = 6
THRESH=10
$end

$solvent
dielectric 4.90
$end
--------------------------------------------------------------

             Standard Nuclear Orientation (Angstroms)
    I     Atom           X                Y                Z
 ----------------------------------------------------------------
    1      C      -0.2657790000    -3.8667250000     0.7281380000
    2      C       0.2092250000    -3.7039630000    -0.5757260000
    3      C       0.3648750000    -2.3570560000    -1.0022900000
    4      H       0.4451760000    -4.5610920000    -1.2244860000
    5      C       0.0000000000    -1.4406640000     0.0000000000
    6      S      -0.5282360000    -2.2869570000     1.4513430000
    7      C       0.8628080000    -1.9787430000    -2.3696830000
    8      H       1.0833680000    -2.8786780000    -2.9758830000
    9      H       1.7935220000    -1.3760150000    -2.3171420000
   10      H       0.1163750000    -1.3757280000    -2.9277870000
   11      H      -0.4712510000    -4.7834370000     1.2919900000
   12      C       0.0000000000     0.0000000000     0.0000000000
   13      C       0.0753000000     0.8603110000     1.0994460000
   14      C       0.1959350000     2.2389510000     0.7767210000
   15      H       0.0431510000     0.4929160000     2.1360880000
   16      C       0.2151880000     2.4587660000    -0.6125460000
   17      S       0.0821600000     0.9388110000    -1.4868090000
   18      C       0.2907620000     3.3225590000     1.8146090000
   19      H       0.2536640000     2.8985420000     2.8366760000
   20      H      -0.5412060000     4.0521400000     1.7262390000
   21      H       1.2367970000     3.8965580000     1.7262280000
   22      H       0.2979380000     3.4043700000    -1.1615750000
 ----------------------------------------------------------------

   10   -1179.6857591986      5.32e-07  Convergence criterion met
 Total energy in the final basis set =    -1179.6857591986
        RIMP2         total energy =     -1181.6660943930 a.u.

                    Orbital Energies (a.u.)
 --------------------------------------------------------------

 Alpha MOs
 -- Occupied --
-91.9850 -91.9850 -11.2838 -11.2781 -11.2728 -11.2622 -11.2540 -11.2519
-11.2436 -11.2400 -11.2300 -11.2288  -8.9849  -8.9848  -6.6658  -6.6657
 -6.6653  -6.6651  -6.6646  -6.6645  -1.1812  -1.1500  -1.0420  -1.0254
 -0.9988  -0.9527  -0.9150  -0.8948  -0.8005  -0.7646  -0.7204  -0.6959
 -0.6633  -0.6158  -0.5843  -0.5808  -0.5773  -0.5696  -0.5529  -0.5341
 -0.5245  -0.5205  -0.5111  -0.4961  -0.4897  -0.4675  -0.4520  -0.3682
 -0.3432  -0.3400  -0.2703

          Ground-State Mulliken Net Atomic Charges

     Atom                 Charge (a.u.)
  ----------------------------------------
      1 C                    -0.212906
      2 C                    -0.252010
      3 C                     0.042366
      4 H                     0.184974
      5 C                    -0.024992
      6 S                     0.012163
      7 C                    -0.315256
      8 H                     0.115007
      9 H                     0.120807
     10 H                     0.111415
     11 H                     0.206723
     12 C                     0.050648
     13 C                    -0.259932
     14 C                     0.025812
     15 H                     0.179058
     16 C                    -0.249568
     17 S                     0.018382
     18 C                    -0.271367
     19 H                     0.102893
     20 H                     0.108512
     21 H                     0.108354
     22 H                     0.198916
  ----------------------------------------
  Sum of atomic charges =     0.000000

                    Cartesian Multipole Moments
 -----------------------------------------------------------------
    Charge (ESU x 10^10)
                -0.0000
    Dipole Moment (Debye)
         X       0.7058      Y       0.0706      Z      -0.0793
       Tot       0.7138
    Quadrupole Moments (Debye-Ang)
        XX     -91.8897     XY       0.1661     YY     -68.7027
        XZ      -2.1312     YZ       3.1442     ZZ     -80.6435

 Total job time:  560.47s(wall), 556.24s(cpu)
        *  Thank you very much for using Q-Chem.  Have a nice day.  *
