 Q-Chem 5.4, Q-Chem, Inc., Pleasanton, CA (2021)
 Q-Chem 5.4.0 for Intel X86 EM64T Linux

User input:
--------------------------------------------------------------
$molecule
0 1
C	-0.728625	-3.866725	0.264439
C	0.575519	-3.703963	-0.209794
C	1.002336	-2.357056	-0.364749
H	1.224165	-4.561092	-0.446060
C	-0.000000	-1.440664	-0.000000
S	-1.451336	-2.286957	0.528253
C	2.369885	-1.978743	-0.862253
H	2.976034	-2.878678	-1.082953
H	2.927887	-1.376015	-0.115513
H	2.317620	-1.375728	-1.792797
H	-1.292636	-4.783437	0.469476
C	0.000000	0.000000	0.000000
C	0.365003	0.782674	1.099446
C	0.949885	2.036912	0.776721
H	0.209135	0.448431	2.136088
C	1.043159	2.236886	-0.612546
S	0.398297	0.854094	-1.486809
C	1.409609	3.022738	1.814609
H	1.229726	2.636980	2.836676
H	0.877346	3.992870	1.726239
H	2.494910	3.238558	1.726228
H	1.444334	3.097160	-1.161575
$end

$rem
JOBTYPE		SP
EXCHANGE	HF
CORRELATION	pRIMP2
BASIS		cc-pvtz
METHOD		rimp2
AUX_BASIS	rimp2-cc-pvtz
SOLVENT_METHOD	PCM
PURECART	11111
SYMMETRY	false
MEM_TOTAL	110000
SCF_CONVERGENCE = 6
THRESH=10
$end

$solvent
dielectric 4.90
$end
--------------------------------------------------------------

             Standard Nuclear Orientation (Angstroms)
    I     Atom           X                Y                Z
 ----------------------------------------------------------------
    1      C      -0.7286250000    -3.8667250000     0.2644390000
    2      C       0.5755190000    -3.7039630000    -0.2097940000
    3      C       1.0023360000    -2.3570560000    -0.3647490000
    4      H       1.2241650000    -4.5610920000    -0.4460600000
    5      C       0.0000000000    -1.4406640000     0.0000000000
    6      S      -1.4513360000    -2.2869570000     0.5282530000
    7      C       2.3698850000    -1.9787430000    -0.8622530000
    8      H       2.9760340000    -2.8786780000    -1.0829530000
    9      H       2.9278870000    -1.3760150000    -0.1155130000
   10      H       2.3176200000    -1.3757280000    -1.7927970000
   11      H      -1.2926360000    -4.7834370000     0.4694760000
   12      C       0.0000000000     0.0000000000     0.0000000000
   13      C       0.3650030000     0.7826740000     1.0994460000
   14      C       0.9498850000     2.0369120000     0.7767210000
   15      H       0.2091350000     0.4484310000     2.1360880000
   16      C       1.0431590000     2.2368860000    -0.6125460000
   17      S       0.3982970000     0.8540940000    -1.4868090000
   18      C       1.4096090000     3.0227380000     1.8146090000
   19      H       1.2297260000     2.6369800000     2.8366760000
   20      H       0.8773460000     3.9928700000     1.7262390000
   21      H       2.4949100000     3.2385580000     1.7262280000
   22      H       1.4443340000     3.0971600000    -1.1615750000
 ----------------------------------------------------------------

   10   -1179.6730636556      5.43e-07  Convergence criterion met
 Total energy in the final basis set =    -1179.6730636556
        RIMP2         total energy =     -1181.6554777452 a.u.

                    Orbital Energies (a.u.)
 --------------------------------------------------------------

 Alpha MOs
 -- Occupied --
-91.9850 -91.9821 -11.2749 -11.2738 -11.2693 -11.2692 -11.2518 -11.2508
-11.2468 -11.2410 -11.2296 -11.2270  -8.9846  -8.9818  -6.6655  -6.6649
 -6.6644  -6.6627  -6.6621  -6.6616  -1.1799  -1.1490  -1.0412  -1.0208
 -0.9981  -0.9537  -0.9128  -0.8920  -0.7987  -0.7559  -0.7296  -0.6952
 -0.6605  -0.6166  -0.5815  -0.5791  -0.5733  -0.5696  -0.5512  -0.5316
 -0.5282  -0.5200  -0.5109  -0.4920  -0.4807  -0.4653  -0.4579  -0.3475
 -0.3410  -0.3257  -0.2940

          Ground-State Mulliken Net Atomic Charges

     Atom                 Charge (a.u.)
  ----------------------------------------
      1 C                    -0.217199
      2 C                    -0.251003
      3 C                     0.059616
      4 H                     0.183800
      5 C                    -0.026458
      6 S                     0.021230
      7 C                    -0.285124
      8 H                     0.109029
      9 H                     0.111689
     10 H                     0.112442
     11 H                     0.203259
     12 C                    -0.055122
     13 C                    -0.220983
     14 C                     0.021242
     15 H                     0.187028
     16 C                    -0.227145
     17 S                     0.026477
     18 C                    -0.269765
     19 H                     0.103058
     20 H                     0.108167
     21 H                     0.107420
     22 H                     0.198340
  ----------------------------------------
  Sum of atomic charges =     0.000000

                    Cartesian Multipole Moments
 -----------------------------------------------------------------
    Charge (ESU x 10^10)
                -0.0000
    Dipole Moment (Debye)
         X       2.3589      Y       0.5414      Z       0.9367
       Tot       2.5952
    Quadrupole Moments (Debye-Ang)
        XX     -85.1774     XY       2.2696     YY     -71.5004
        XZ      -1.7093     YZ       1.6841     ZZ     -85.7413

 Total job time:  572.39s(wall), 569.23s(cpu)
        *  Thank you very much for using Q-Chem.  Have a nice day.  *
