 Q-Chem 5.4, Q-Chem, Inc., Pleasanton, CA (2021)
 Q-Chem 5.4.0 for Intel X86 EM64T Linux

User input:
--------------------------------------------------------------
$molecule
0 1
C	0.498788	-3.866725	-0.593324
C	-0.393517	-3.703963	0.469446
C	-0.685674	-2.357056	0.817050
H	-0.837128	-4.561092	0.998381
C	0.000000	-1.440664	0.000000
S	0.992768	-2.286957	-1.183149
C	-1.621254	-1.978743	1.931676
H	-2.035845	-2.878678	2.425882
H	-2.477868	-1.376015	1.563980
H	-1.110719	-1.375728	2.711417
H	0.884718	-4.783437	-1.052896
C	0.000000	0.000000	0.000000
C	0.661577	0.555087	1.099446
C	1.721724	1.444630	0.776721
H	0.379056	0.318032	2.136088
C	1.890772	1.586449	-0.612546
S	0.721935	0.605744	-1.486809
C	2.555004	2.143805	1.814609
H	2.228946	1.870211	2.836676
H	2.482605	3.247987	1.726239
H	3.629830	1.880735	1.726228
H	2.617927	2.196579	-1.161575
$end

$rem
JOBTYPE		SP
EXCHANGE	HF
CORRELATION	pRIMP2
BASIS		cc-pvtz
METHOD		rimp2
AUX_BASIS	rimp2-cc-pvtz
SOLVENT_METHOD	PCM
PURECART	11111
SYMMETRY	false
MEM_TOTAL	110000
SCF_CONVERGENCE = 6
THRESH=10
$end

$solvent
dielectric 4.90
$end
--------------------------------------------------------------

             Standard Nuclear Orientation (Angstroms)
    I     Atom           X                Y                Z
 ----------------------------------------------------------------
    1      C       0.4987880000    -3.8667250000    -0.5933240000
    2      C      -0.3935170000    -3.7039630000     0.4694460000
    3      C      -0.6856740000    -2.3570560000     0.8170500000
    4      H      -0.8371280000    -4.5610920000     0.9983810000
    5      C       0.0000000000    -1.4406640000     0.0000000000
    6      S       0.9927680000    -2.2869570000    -1.1831490000
    7      C      -1.6212540000    -1.9787430000     1.9316760000
    8      H      -2.0358450000    -2.8786780000     2.4258820000
    9      H      -2.4778680000    -1.3760150000     1.5639800000
   10      H      -1.1107190000    -1.3757280000     2.7114170000
   11      H       0.8847180000    -4.7834370000    -1.0528960000
   12      C       0.0000000000     0.0000000000     0.0000000000
   13      C       0.6615770000     0.5550870000     1.0994460000
   14      C       1.7217240000     1.4446300000     0.7767210000
   15      H       0.3790560000     0.3180320000     2.1360880000
   16      C       1.8907720000     1.5864490000    -0.6125460000
   17      S       0.7219350000     0.6057440000    -1.4868090000
   18      C       2.5550040000     2.1438050000     1.8146090000
   19      H       2.2289460000     1.8702110000     2.8366760000
   20      H       2.4826050000     3.2479870000     1.7262390000
   21      H       3.6298300000     1.8807350000     1.7262280000
   22      H       2.6179270000     2.1965790000    -1.1615750000
 ----------------------------------------------------------------

   10   -1179.6348201797      8.85e-07  Convergence criterion met
 Total energy in the final basis set =    -1179.6348201797
        RIMP2         total energy =     -1181.6261137620 a.u.

                    Orbital Energies (a.u.)
 --------------------------------------------------------------

 Alpha MOs
 -- Occupied --
-91.9860 -91.9785 -11.2847 -11.2770 -11.2657 -11.2615 -11.2557 -11.2556
-11.2373 -11.2347 -11.2316 -11.2260  -8.9866  -8.9783  -6.6673  -6.6666
 -6.6662  -6.6591  -6.6585  -6.6578  -1.1893  -1.1459  -1.0465  -1.0200
 -0.9980  -0.9554  -0.9091  -0.8925  -0.8014  -0.7523  -0.7337  -0.6961
 -0.6553  -0.6183  -0.5910  -0.5803  -0.5691  -0.5640  -0.5501  -0.5386
 -0.5333  -0.5175  -0.5074  -0.4890  -0.4817  -0.4625  -0.4510  -0.3652
 -0.3387  -0.3335  -0.2694

          Ground-State Mulliken Net Atomic Charges

     Atom                 Charge (a.u.)
  ----------------------------------------
      1 C                    -0.257164
      2 C                    -0.239107
      3 C                     0.000266
      4 H                     0.180248
      5 C                     0.008409
      6 S                     0.017580
      7 C                    -0.294233
      8 H                     0.107961
      9 H                     0.107822
     10 H                     0.100277
     11 H                     0.200074
     12 C                    -0.079288
     13 C                    -0.129749
     14 C                    -0.009560
     15 H                     0.198110
     16 C                    -0.185275
     17 S                     0.019520
     18 C                    -0.267539
     19 H                     0.102535
     20 H                     0.108408
     21 H                     0.107515
     22 H                     0.203189
  ----------------------------------------
  Sum of atomic charges =     0.000000

                    Cartesian Multipole Moments
 -----------------------------------------------------------------
    Charge (ESU x 10^10)
                -0.0000
    Dipole Moment (Debye)
         X       1.4968      Y       1.4418      Z       2.5704
       Tot       3.3054
    Quadrupole Moments (Debye-Ang)
        XX     -82.8016     XY       7.7058     YY     -79.0969
        XZ      -2.3131     YZ      -1.1670     ZZ     -82.3964

 Total job time:  569.26s(wall), 566.24s(cpu)
        *  Thank you very much for using Q-Chem.  Have a nice day.  *
