 Q-Chem 5.4, Q-Chem, Inc., Pleasanton, CA (2021)
 Q-Chem 5.4.0 for Intel X86 EM64T Linux

User input:
--------------------------------------------------------------
$molecule
0 1
C	0.763475	-3.866725	-0.133897
C	-0.603206	-3.703963	0.106669
C	-1.050446	-2.357056	0.185154
H	-1.283024	-4.561092	0.226709
C	0.000000	-1.440664	0.000000
S	1.521018	-2.286957	-0.268206
C	-2.483610	-1.978743	0.437628
H	-3.118875	-2.878678	0.549717
H	-2.903464	-1.376015	-0.394664
H	-2.593726	-1.375728	1.363110
H	1.354522	-4.783437	-0.237880
C	0.000000	0.000000	0.000000
C	0.295399	0.811508	1.099446
C	0.768742	2.111949	0.776721
H	0.169256	0.464952	2.136088
C	0.844232	2.319291	-0.612546
S	0.322342	0.885558	-1.486809
C	1.140796	3.134091	1.814609
H	0.995218	2.734123	2.836676
H	0.526006	4.054142	1.726239
H	2.203157	3.443680	1.726228
H	1.168902	3.211257	-1.161575
$end

$rem
JOBTYPE		SP
EXCHANGE	HF
CORRELATION	pRIMP2
BASIS		cc-pvtz
METHOD		rimp2
AUX_BASIS	rimp2-cc-pvtz
SOLVENT_METHOD	PCM
PURECART	11111
SYMMETRY	false
MEM_TOTAL	110000
SCF_CONVERGENCE = 6
THRESH=10
$end

$solvent
dielectric 4.90
$end
--------------------------------------------------------------

             Standard Nuclear Orientation (Angstroms)
    I     Atom           X                Y                Z
 ----------------------------------------------------------------
    1      C       0.7634750000    -3.8667250000    -0.1338970000
    2      C      -0.6032060000    -3.7039630000     0.1066690000
    3      C      -1.0504460000    -2.3570560000     0.1851540000
    4      H      -1.2830240000    -4.5610920000     0.2267090000
    5      C       0.0000000000    -1.4406640000     0.0000000000
    6      S       1.5210180000    -2.2869570000    -0.2682060000
    7      C      -2.4836100000    -1.9787430000     0.4376280000
    8      H      -3.1188750000    -2.8786780000     0.5497170000
    9      H      -2.9034640000    -1.3760150000    -0.3946640000
   10      H      -2.5937260000    -1.3757280000     1.3631100000
   11      H       1.3545220000    -4.7834370000    -0.2378800000
   12      C       0.0000000000     0.0000000000     0.0000000000
   13      C       0.2953990000     0.8115080000     1.0994460000
   14      C       0.7687420000     2.1119490000     0.7767210000
   15      H       0.1692560000     0.4649520000     2.1360880000
   16      C       0.8442320000     2.3192910000    -0.6125460000
   17      S       0.3223420000     0.8855580000    -1.4868090000
   18      C       1.1407960000     3.1340910000     1.8146090000
   19      H       0.9952180000     2.7341230000     2.8366760000
   20      H       0.5260060000     4.0541420000     1.7262390000
   21      H       2.2031570000     3.4436800000     1.7262280000
   22      H       1.1689020000     3.2112570000    -1.1615750000
 ----------------------------------------------------------------

   10   -1179.6780757451      5.03e-07  Convergence criterion met
 Total energy in the final basis set =    -1179.6780757451
        RIMP2         total energy =     -1181.6574468057 a.u.

                    Orbital Energies (a.u.)
 --------------------------------------------------------------

 Alpha MOs
 -- Occupied --
-91.9850 -91.9834 -11.2758 -11.2720 -11.2714 -11.2672 -11.2518 -11.2510
-11.2445 -11.2408 -11.2291 -11.2290  -8.9846  -8.9831  -6.6655  -6.6649
 -6.6643  -6.6640  -6.6635  -6.6628  -1.1791  -1.1491  -1.0404  -1.0226
 -0.9967  -0.9539  -0.9127  -0.8921  -0.8005  -0.7522  -0.7320  -0.6942
 -0.6616  -0.6164  -0.5829  -0.5791  -0.5701  -0.5688  -0.5516  -0.5313
 -0.5306  -0.5193  -0.5080  -0.4914  -0.4839  -0.4655  -0.4623  -0.3500
 -0.3356  -0.3194  -0.3026

          Ground-State Mulliken Net Atomic Charges

     Atom                 Charge (a.u.)
  ----------------------------------------
      1 C                    -0.206697
      2 C                    -0.252229
      3 C                     0.058778
      4 H                     0.183005
      5 C                    -0.064026
      6 S                     0.026760
      7 C                    -0.283528
      8 H                     0.106780
      9 H                     0.110798
     10 H                     0.108798
     11 H                     0.204271
     12 C                    -0.011941
     13 C                    -0.227416
     14 C                     0.023397
     15 H                     0.184930
     16 C                    -0.233832
     17 S                     0.026240
     18 C                    -0.270545
     19 H                     0.102693
     20 H                     0.107760
     21 H                     0.108083
     22 H                     0.197920
  ----------------------------------------
  Sum of atomic charges =     0.000000

                    Cartesian Multipole Moments
 -----------------------------------------------------------------
    Charge (ESU x 10^10)
                -0.0000
    Dipole Moment (Debye)
         X      -0.7550      Y       0.3549      Z       1.7302
       Tot       1.9209
    Quadrupole Moments (Debye-Ang)
        XX     -85.0891     XY       5.6453     YY     -70.2774
        XZ      -0.7504     YZ       0.5497     ZZ     -86.4266

 Total job time:  553.72s(wall), 549.95s(cpu)
        *  Thank you very much for using Q-Chem.  Have a nice day.  *
