 Q-Chem 5.4, Q-Chem, Inc., Pleasanton, CA (2021)
 Q-Chem 5.4.0 for Intel X86 EM64T Linux

User input:
--------------------------------------------------------------
$molecule
0 1
C	0.000713	-3.866725	-0.775127
C	0.000302	-3.703963	0.612565
C	-0.000067	-2.357056	1.066639
H	0.000470	-4.561092	1.302900
C	0.000000	-1.440664	0.000000
S	-0.000009	-2.286957	-1.544483
C	-0.000295	-1.978743	2.521872
H	-0.000221	-2.878678	3.166949
H	-0.892850	-1.376015	2.790821
H	0.892005	-1.375728	2.791023
H	0.000945	-4.783437	-1.375251
C	0.000000	0.000000	0.000000
C	0.000033	0.863600	1.099446
C	0.000052	2.247508	0.776721
H	0.000026	0.494801	2.136088
C	0.000074	2.468165	-0.612546
S	0.000024	0.942399	-1.486809
C	0.000075	3.335257	1.814609
H	0.000074	2.909620	2.836676
H	-0.892314	3.989552	1.726239
H	0.892483	3.989525	1.726228
H	0.000094	3.417382	-1.161575
$end

$rem
JOBTYPE		SP
EXCHANGE	HF
CORRELATION	pRIMP2
BASIS		cc-pvtz
METHOD		rimp2
AUX_BASIS	rimp2-cc-pvtz
SOLVENT_METHOD	PCM
PURECART	11111
SYMMETRY	false
MEM_TOTAL	110000
SCF_CONVERGENCE = 6
THRESH=10
$end

$solvent
dielectric 4.90
$end
--------------------------------------------------------------

 Q-Chem 5.4, Q-Chem, Inc., Pleasanton, CA (2021)
 Q-Chem 5.4.0 for Intel X86 EM64T Linux

User input:
--------------------------------------------------------------
$molecule
0 1
C	0.000713	-3.866725	-0.775127
C	0.000302	-3.703963	0.612565
C	-0.000067	-2.357056	1.066639
H	0.000470	-4.561092	1.302900
C	0.000000	-1.440664	0.000000
S	-0.000009	-2.286957	-1.544483
C	-0.000295	-1.978743	2.521872
H	-0.000221	-2.878678	3.166949
H	-0.892850	-1.376015	2.790821
H	0.892005	-1.375728	2.791023
H	0.000945	-4.783437	-1.375251
C	0.000000	0.000000	0.000000
C	0.000033	0.863600	1.099446
C	0.000052	2.247508	0.776721
H	0.000026	0.494801	2.136088
C	0.000074	2.468165	-0.612546
S	0.000024	0.942399	-1.486809
C	0.000075	3.335257	1.814609
H	0.000074	2.909620	2.836676
H	-0.892314	3.989552	1.726239
H	0.892483	3.989525	1.726228
H	0.000094	3.417382	-1.161575
$end

$rem
JOBTYPE		SP
EXCHANGE	HF
CORRELATION	pRIMP2
BASIS		cc-pvtz
METHOD		rimp2
AUX_BASIS	rimp2-cc-pvtz
SOLVENT_METHOD	PCM
PURECART	11111
SYMMETRY	false
MEM_TOTAL	110000
SCF_CONVERGENCE = 6
THRESH=10
$end

$solvent
dielectric 4.90
$end
--------------------------------------------------------------

             Standard Nuclear Orientation (Angstroms)
    I     Atom           X                Y                Z
 ----------------------------------------------------------------
    1      C       0.0007130000    -3.8667250000    -0.7751270000
    2      C       0.0003020000    -3.7039630000     0.6125650000
    3      C      -0.0000670000    -2.3570560000     1.0666390000
    4      H       0.0004700000    -4.5610920000     1.3029000000
    5      C       0.0000000000    -1.4406640000     0.0000000000
    6      S      -0.0000090000    -2.2869570000    -1.5444830000
    7      C      -0.0002950000    -1.9787430000     2.5218720000
    8      H      -0.0002210000    -2.8786780000     3.1669490000
    9      H      -0.8928500000    -1.3760150000     2.7908210000
   10      H       0.8920050000    -1.3757280000     2.7910230000
   11      H       0.0009450000    -4.7834370000    -1.3752510000
   12      C       0.0000000000     0.0000000000     0.0000000000
   13      C       0.0000330000     0.8636000000     1.0994460000
   14      C       0.0000520000     2.2475080000     0.7767210000
   15      H       0.0000260000     0.4948010000     2.1360880000
   16      C       0.0000740000     2.4681650000    -0.6125460000
   17      S       0.0000240000     0.9423990000    -1.4868090000
   18      C       0.0000750000     3.3352570000     1.8146090000
   19      H       0.0000740000     2.9096200000     2.8366760000
   20      H      -0.8923140000     3.9895520000     1.7262390000
   21      H       0.8924830000     3.9895250000     1.7262280000
   22      H       0.0000940000     3.4173820000    -1.1615750000
 ----------------------------------------------------------------

   10   -1179.6856797132      5.27e-07  Convergence criterion met
 Total energy in the final basis set =    -1179.6856797132
        RIMP2         total energy =     -1181.6656848058 a.u.

                    Orbital Energies (a.u.)
 --------------------------------------------------------------

 Alpha MOs
 -- Occupied --
-91.9858 -91.9852 -11.2842 -11.2789 -11.2731 -11.2638 -11.2545 -11.2522
-11.2443 -11.2394 -11.2321 -11.2293  -8.9856  -8.9853  -6.6666  -6.6662
 -6.6660  -6.6657  -6.6654  -6.6650  -1.1818  -1.1505  -1.0421  -1.0283
 -0.9959  -0.9566  -0.9150  -0.8948  -0.8037  -0.7574  -0.7267  -0.7012
 -0.6626  -0.6140  -0.5909  -0.5824  -0.5700  -0.5643  -0.5525  -0.5403
 -0.5296  -0.5241  -0.5041  -0.4907  -0.4895  -0.4781  -0.4505  -0.3714
 -0.3482  -0.3374  -0.2686

          Ground-State Mulliken Net Atomic Charges

     Atom                 Charge (a.u.)
  ----------------------------------------
      1 C                    -0.211233
      2 C                    -0.258657
      3 C                     0.081407
      4 H                     0.184206
      5 C                    -0.053923
      6 S                     0.007048
      7 C                    -0.316380
      8 H                     0.120285
      9 H                     0.110667
     10 H                     0.110644
     11 H                     0.208261
     12 C                     0.035701
     13 C                    -0.234884
     14 C                     0.019083
     15 H                     0.195930
     16 C                    -0.250771
     17 S                     0.005336
     18 C                    -0.271955
     19 H                     0.101293
     20 H                     0.108767
     21 H                     0.108767
     22 H                     0.200407
  ----------------------------------------
  Sum of atomic charges =     0.000000

                    Cartesian Multipole Moments
 -----------------------------------------------------------------
    Charge (ESU x 10^10)
                -0.0000
    Dipole Moment (Debye)
         X       0.0001      Y       0.0894      Z       2.9396
       Tot       2.9410
    Quadrupole Moments (Debye-Ang)
        XX     -92.7944     XY      -0.0020     YY     -68.1384
        XZ      -0.0006     YZ      -1.1736     ZZ     -80.0130

 Total job time:  596.03s(wall), 592.13s(cpu)
        *  Thank you very much for using Q-Chem.  Have a nice day.  *
