 Q-Chem 5.4, Q-Chem, Inc., Pleasanton, CA (2021)
 Q-Chem 5.4.0 for Intel X86 EM64T Linux

User input:
--------------------------------------------------------------
$molecule
0 1
C	0.775127	-3.866725	0.000713
C	-0.612565	-3.703963	0.000302
C	-1.066639	-2.357056	-0.000067
H	-1.302900	-4.561092	0.000470
C	-0.000000	-1.440664	-0.000000
S	1.544483	-2.286957	-0.000009
C	-2.521872	-1.978743	-0.000295
H	-3.166949	-2.878678	-0.000221
H	-2.790821	-1.376015	-0.892850
H	-2.791023	-1.375728	0.892005
H	1.375251	-4.783437	0.000945
C	0.000000	0.000000	0.000000
C	0.149995	0.850475	1.099446
C	0.390327	2.213354	0.776721
H	0.085947	0.487279	2.136088
C	0.428665	2.430655	-0.612546
S	0.163670	0.928078	-1.486809
C	0.579235	3.284574	1.814609
H	0.505323	2.865404	2.836676
H	-0.185980	4.083890	1.726239
H	1.571698	3.773937	1.726228
H	0.593515	3.365448	-1.161575
$end

$rem
JOBTYPE		SP
EXCHANGE	HF
CORRELATION	pRIMP2
BASIS		cc-pvtz
METHOD		rimp2
AUX_BASIS	rimp2-cc-pvtz
SOLVENT_METHOD	PCM
PURECART	11111
SYMMETRY	false
MEM_TOTAL	110000
SCF_CONVERGENCE = 6
THRESH=10
$end

$solvent
dielectric 4.90
$end
--------------------------------------------------------------

             Standard Nuclear Orientation (Angstroms)
    I     Atom           X                Y                Z
 ----------------------------------------------------------------
    1      C       0.7751270000    -3.8667250000     0.0007130000
    2      C      -0.6125650000    -3.7039630000     0.0003020000
    3      C      -1.0666390000    -2.3570560000    -0.0000670000
    4      H      -1.3029000000    -4.5610920000     0.0004700000
    5      C       0.0000000000    -1.4406640000     0.0000000000
    6      S       1.5444830000    -2.2869570000    -0.0000090000
    7      C      -2.5218720000    -1.9787430000    -0.0002950000
    8      H      -3.1669490000    -2.8786780000    -0.0002210000
    9      H      -2.7908210000    -1.3760150000    -0.8928500000
   10      H      -2.7910230000    -1.3757280000     0.8920050000
   11      H       1.3752510000    -4.7834370000     0.0009450000
   12      C       0.0000000000     0.0000000000     0.0000000000
   13      C       0.1499950000     0.8504750000     1.0994460000
   14      C       0.3903270000     2.2133540000     0.7767210000
   15      H       0.0859470000     0.4872790000     2.1360880000
   16      C       0.4286650000     2.4306550000    -0.6125460000
   17      S       0.1636700000     0.9280780000    -1.4868090000
   18      C       0.5792350000     3.2845740000     1.8146090000
   19      H       0.5053230000     2.8654040000     2.8366760000
   20      H      -0.1859800000     4.0838900000     1.7262390000
   21      H       1.5716980000     3.7739370000     1.7262280000
   22      H       0.5935150000     3.3654480000    -1.1615750000
 ----------------------------------------------------------------

   10   -1179.6837859940      5.02e-07  Convergence criterion met
 Total energy in the final basis set =    -1179.6837859940
        RIMP2         total energy =     -1181.6617474274 a.u.

                    Orbital Energies (a.u.)
 --------------------------------------------------------------

 Alpha MOs
 -- Occupied --
-91.9851 -91.9843 -11.2778 -11.2724 -11.2722 -11.2652 -11.2536 -11.2507
-11.2428 -11.2415 -11.2294 -11.2289  -8.9846  -8.9840  -6.6655  -6.6650
 -6.6648  -6.6644  -6.6643  -6.6637  -1.1784  -1.1494  -1.0399  -1.0230
 -0.9970  -0.9538  -0.9134  -0.8921  -0.8007  -0.7537  -0.7305  -0.6945
 -0.6623  -0.6163  -0.5826  -0.5791  -0.5708  -0.5690  -0.5519  -0.5315
 -0.5296  -0.5197  -0.5075  -0.4919  -0.4872  -0.4639  -0.4634  -0.3474
 -0.3369  -0.3127  -0.3115

          Ground-State Mulliken Net Atomic Charges

     Atom                 Charge (a.u.)
  ----------------------------------------
      1 C                    -0.207751
      2 C                    -0.250594
      3 C                     0.051794
      4 H                     0.183811
      5 C                    -0.058353
      6 S                     0.025512
      7 C                    -0.282159
      8 H                     0.106729
      9 H                     0.110360
     10 H                     0.109769
     11 H                     0.204435
     12 C                    -0.002915
     13 C                    -0.232516
     14 C                     0.021805
     15 H                     0.185714
     16 C                    -0.237968
     17 S                     0.026964
     18 C                    -0.271106
     19 H                     0.102646
     20 H                     0.107767
     21 H                     0.108297
     22 H                     0.197759
  ----------------------------------------
  Sum of atomic charges =     0.000000

                    Cartesian Multipole Moments
 -----------------------------------------------------------------
    Charge (ESU x 10^10)
                -0.0000
    Dipole Moment (Debye)
         X      -1.1613      Y       0.2547      Z       1.4500
       Tot       1.8751
    Quadrupole Moments (Debye-Ang)
        XX     -85.7973     XY       4.0001     YY     -69.0717
        XZ       0.2023     YZ       1.0046     ZZ     -86.7124

 Total job time:  560.34s(wall), 555.70s(cpu)
        *  Thank you very much for using Q-Chem.  Have a nice day.  *
