 Q-Chem 5.4, Q-Chem, Inc., Pleasanton, CA (2021)
 Q-Chem 5.4.0 for Intel X86 EM64T Linux

User input:
--------------------------------------------------------------
$molecule
0 1
C	0.000713	-3.866725	-0.775127
C	0.000302	-3.703963	0.612565
C	-0.000067	-2.357056	1.066639
H	0.000470	-4.561092	1.302900
C	0.000000	-1.440664	0.000000
S	-0.000009	-2.286957	-1.544483
C	-0.000295	-1.978743	2.521872
H	-0.000221	-2.878678	3.166949
H	-0.892850	-1.376015	2.790821
H	0.892005	-1.375728	2.791023
H	0.000945	-4.783437	-1.375251
C	0.000000	0.000000	0.000000
C	0.747916	0.431772	1.099446
C	1.946425	1.123709	0.776721
H	0.428523	0.247378	2.136088
C	2.137531	1.234018	-0.612546
S	0.816154	0.471179	-1.486809
C	2.888455	1.667564	1.814609
H	2.519842	1.454746	2.836676
H	3.008896	2.767543	1.726239
H	3.901271	1.221850	1.726228
H	2.959587	1.708609	-1.161575
$end

$rem
JOBTYPE		SP
EXCHANGE	HF
CORRELATION	pRIMP2
BASIS		cc-pvtz
METHOD		rimp2
AUX_BASIS	rimp2-cc-pvtz
SOLVENT_METHOD	PCM
PURECART	11111
SYMMETRY	false
MEM_TOTAL	110000
SCF_CONVERGENCE = 6
THRESH=10
$end

$solvent
dielectric 4.90
$end
--------------------------------------------------------------

             Standard Nuclear Orientation (Angstroms)
    I     Atom           X                Y                Z
 ----------------------------------------------------------------
    1      C       0.0007130000    -3.8667250000    -0.7751270000
    2      C       0.0003020000    -3.7039630000     0.6125650000
    3      C      -0.0000670000    -2.3570560000     1.0666390000
    4      H       0.0004700000    -4.5610920000     1.3029000000
    5      C       0.0000000000    -1.4406640000     0.0000000000
    6      S      -0.0000090000    -2.2869570000    -1.5444830000
    7      C      -0.0002950000    -1.9787430000     2.5218720000
    8      H      -0.0002210000    -2.8786780000     3.1669490000
    9      H      -0.8928500000    -1.3760150000     2.7908210000
   10      H       0.8920050000    -1.3757280000     2.7910230000
   11      H       0.0009450000    -4.7834370000    -1.3752510000
   12      C       0.0000000000     0.0000000000     0.0000000000
   13      C       0.7479160000     0.4317720000     1.0994460000
   14      C       1.9464250000     1.1237090000     0.7767210000
   15      H       0.4285230000     0.2473780000     2.1360880000
   16      C       2.1375310000     1.2340180000    -0.6125460000
   17      S       0.8161540000     0.4711790000    -1.4868090000
   18      C       2.8884550000     1.6675640000     1.8146090000
   19      H       2.5198420000     1.4547460000     2.8366760000
   20      H       3.0088960000     2.7675430000     1.7262390000
   21      H       3.9012710000     1.2218500000     1.7262280000
   22      H       2.9595870000     1.7086090000    -1.1615750000
 ----------------------------------------------------------------

   11   -1179.6022981731      6.30e-07  Convergence criterion met
 Total energy in the final basis set =    -1179.6022981731
        RIMP2         total energy =     -1181.5999881082 a.u.

                    Orbital Energies (a.u.)
 --------------------------------------------------------------

 Alpha MOs
 -- Occupied --
-91.9848 -91.9726 -11.2950 -11.2800 -11.2671 -11.2573 -11.2564 -11.2531
-11.2363 -11.2329 -11.2316 -11.2270  -8.9859  -8.9733  -6.6667  -6.6658
 -6.6655  -6.6543  -6.6536  -6.6529  -1.1955  -1.1446  -1.0492  -1.0260
 -0.9970  -0.9540  -0.9113  -0.8946  -0.8005  -0.7589  -0.7299  -0.7020
 -0.6526  -0.6184  -0.6010  -0.5842  -0.5706  -0.5585  -0.5502  -0.5435
 -0.5347  -0.5192  -0.5054  -0.4854  -0.4847  -0.4595  -0.4403  -0.3718
 -0.3517  -0.3252  -0.2600

          Ground-State Mulliken Net Atomic Charges

     Atom                 Charge (a.u.)
  ----------------------------------------
      1 C                    -0.256515
      2 C                    -0.244291
      3 C                     0.019107
      4 H                     0.180130
      5 C                    -0.009301
      6 S                    -0.006974
      7 C                    -0.299449
      8 H                     0.112977
      9 H                     0.105966
     10 H                     0.096094
     11 H                     0.199834
     12 C                    -0.109837
     13 C                    -0.110339
     14 C                    -0.021133
     15 H                     0.204314
     16 C                    -0.158714
     17 S                     0.040219
     18 C                    -0.269798
     19 H                     0.102745
     20 H                     0.111262
     21 H                     0.108043
     22 H                     0.205660
  ----------------------------------------
  Sum of atomic charges =     0.000000

                    Cartesian Multipole Moments
 -----------------------------------------------------------------
    Charge (ESU x 10^10)
                -0.0000
    Dipole Moment (Debye)
         X       3.1338      Y       1.5686      Z       3.0045
       Tot       4.6161
    Quadrupole Moments (Debye-Ang)
        XX     -82.3643     XY       5.8712     YY     -82.2519
        XZ       0.3560     YZ      -1.9380     ZZ     -79.8937

 Total job time:  658.63s(wall), 653.77s(cpu)
        *  Thank you very much for using Q-Chem.  Have a nice day.  *
