 Q-Chem 5.4, Q-Chem, Inc., Pleasanton, CA (2021)
 Q-Chem 5.4.0 for Intel X86 EM64T Linux

User input:
--------------------------------------------------------------
$molecule
0 1
C	-0.135301	-3.866725	0.763228
C	0.106073	-3.703963	-0.603311
C	0.185286	-2.357056	-1.050423
H	0.225783	-4.561092	-1.283188
C	-0.000000	-1.440664	-0.000000
S	-0.268187	-2.286957	1.521021
C	0.438209	-1.978743	-2.483507
H	0.550153	-2.878678	-3.118798
H	1.363906	-1.376015	-2.593381
H	-0.393798	-1.375728	-2.903516
H	-0.239740	-4.783437	1.354194
C	0.000000	0.000000	0.000000
C	0.747916	0.431772	1.099446
C	1.946425	1.123709	0.776721
H	0.428523	0.247378	2.136088
C	2.137531	1.234018	-0.612546
S	0.816154	0.471179	-1.486809
C	2.888455	1.667564	1.814609
H	2.519842	1.454746	2.836676
H	3.008896	2.767543	1.726239
H	3.901271	1.221850	1.726228
H	2.959587	1.708609	-1.161575
$end

$rem
JOBTYPE		SP
EXCHANGE	HF
CORRELATION	pRIMP2
BASIS		cc-pvtz
METHOD		rimp2
AUX_BASIS	rimp2-cc-pvtz
SOLVENT_METHOD	PCM
PURECART	11111
SYMMETRY	false
MEM_TOTAL	110000
SCF_CONVERGENCE = 6
THRESH=10
$end

$solvent
dielectric 4.90
$end
--------------------------------------------------------------

             Standard Nuclear Orientation (Angstroms)
    I     Atom           X                Y                Z
 ----------------------------------------------------------------
    1      C      -0.1353010000    -3.8667250000     0.7632280000
    2      C       0.1060730000    -3.7039630000    -0.6033110000
    3      C       0.1852860000    -2.3570560000    -1.0504230000
    4      H       0.2257830000    -4.5610920000    -1.2831880000
    5      C       0.0000000000    -1.4406640000     0.0000000000
    6      S      -0.2681870000    -2.2869570000     1.5210210000
    7      C       0.4382090000    -1.9787430000    -2.4835070000
    8      H       0.5501530000    -2.8786780000    -3.1187980000
    9      H       1.3639060000    -1.3760150000    -2.5933810000
   10      H      -0.3937980000    -1.3757280000    -2.9035160000
   11      H      -0.2397400000    -4.7834370000     1.3541940000
   12      C       0.0000000000     0.0000000000     0.0000000000
   13      C       0.7479160000     0.4317720000     1.0994460000
   14      C       1.9464250000     1.1237090000     0.7767210000
   15      H       0.4285230000     0.2473780000     2.1360880000
   16      C       2.1375310000     1.2340180000    -0.6125460000
   17      S       0.8161540000     0.4711790000    -1.4868090000
   18      C       2.8884550000     1.6675640000     1.8146090000
   19      H       2.5198420000     1.4547460000     2.8366760000
   20      H       3.0088960000     2.7675430000     1.7262390000
   21      H       3.9012710000     1.2218500000     1.7262280000
   22      H       2.9595870000     1.7086090000    -1.1615750000
 ----------------------------------------------------------------

   11   -1179.5913845629      7.00e-07  Convergence criterion met
 Total energy in the final basis set =    -1179.5913845629
        RIMP2         total energy =     -1181.5935237180 a.u.

                    Orbital Energies (a.u.)
 --------------------------------------------------------------

 Alpha MOs
 -- Occupied --
-91.9816 -91.9728 -11.2898 -11.2817 -11.2650 -11.2581 -11.2556 -11.2543
-11.2376 -11.2329 -11.2312 -11.2206  -8.9834  -8.9736  -6.6639  -6.6631
 -6.6628  -6.6546  -6.6540  -6.6533  -1.1947  -1.1445  -1.0485  -1.0258
 -0.9984  -0.9487  -0.9110  -0.8964  -0.7942  -0.7681  -0.7251  -0.6932
 -0.6546  -0.6210  -0.5931  -0.5859  -0.5762  -0.5697  -0.5506  -0.5350
 -0.5260  -0.5205  -0.5117  -0.4945  -0.4685  -0.4544  -0.4393  -0.3702
 -0.3389  -0.3326  -0.2603

          Ground-State Mulliken Net Atomic Charges

     Atom                 Charge (a.u.)
  ----------------------------------------
      1 C                    -0.244655
      2 C                    -0.246204
      3 C                     0.005218
      4 H                     0.182311
      5 C                    -0.001492
      6 S                    -0.029434
      7 C                    -0.285126
      8 H                     0.102542
      9 H                     0.115301
     10 H                     0.105374
     11 H                     0.200180
     12 C                    -0.102310
     13 C                    -0.102686
     14 C                    -0.020459
     15 H                     0.188409
     16 C                    -0.183349
     17 S                     0.061031
     18 C                    -0.264531
     19 H                     0.103740
     20 H                     0.107496
     21 H                     0.105816
     22 H                     0.202827
  ----------------------------------------
  Sum of atomic charges =     0.000000

                    Cartesian Multipole Moments
 -----------------------------------------------------------------
    Charge (ESU x 10^10)
                -0.0000
    Dipole Moment (Debye)
         X       3.2810      Y       1.3056      Z      -0.1983
       Tot       3.5368
    Quadrupole Moments (Debye-Ang)
        XX     -82.5487     XY       5.0056     YY     -82.2702
        XZ      -0.9798     YZ       2.8905     ZZ     -79.8884

 Total job time:  659.74s(wall), 655.17s(cpu)
        *  Thank you very much for using Q-Chem.  Have a nice day.  *
