 Q-Chem 5.4, Q-Chem, Inc., Pleasanton, CA (2021)
 Q-Chem 5.4.0 for Intel X86 EM64T Linux

User input:
--------------------------------------------------------------
$molecule
0 1
C	0.763228	-3.866725	0.135301
C	-0.603311	-3.703963	-0.106073
C	-1.050423	-2.357056	-0.185286
H	-1.283188	-4.561092	-0.225783
C	-0.000000	-1.440664	-0.000000
S	1.521021	-2.286957	0.268187
C	-2.483507	-1.978743	-0.438209
H	-3.118798	-2.878678	-0.550153
H	-2.593381	-1.376015	-1.363906
H	-2.903516	-1.375728	0.393798
H	1.354194	-4.783437	0.239740
C	0.000000	0.000000	0.000000
C	0.365003	0.782674	1.099446
C	0.949885	2.036912	0.776721
H	0.209135	0.448431	2.136088
C	1.043159	2.236886	-0.612546
S	0.398297	0.854094	-1.486809
C	1.409609	3.022738	1.814609
H	1.229726	2.636980	2.836676
H	0.877346	3.992870	1.726239
H	2.494910	3.238558	1.726228
H	1.444334	3.097160	-1.161575
$end

$rem
JOBTYPE		SP
EXCHANGE	HF
CORRELATION	pRIMP2
BASIS		cc-pvtz
METHOD		rimp2
AUX_BASIS	rimp2-cc-pvtz
SOLVENT_METHOD	PCM
PURECART	11111
SYMMETRY	false
MEM_TOTAL	110000
SCF_CONVERGENCE = 6
THRESH=10
$end

$solvent
dielectric 4.90
$end
--------------------------------------------------------------

             Standard Nuclear Orientation (Angstroms)
    I     Atom           X                Y                Z
 ----------------------------------------------------------------
    1      C       0.7632280000    -3.8667250000     0.1353010000
    2      C      -0.6033110000    -3.7039630000    -0.1060730000
    3      C      -1.0504230000    -2.3570560000    -0.1852860000
    4      H      -1.2831880000    -4.5610920000    -0.2257830000
    5      C       0.0000000000    -1.4406640000     0.0000000000
    6      S       1.5210210000    -2.2869570000     0.2681870000
    7      C      -2.4835070000    -1.9787430000    -0.4382090000
    8      H      -3.1187980000    -2.8786780000    -0.5501530000
    9      H      -2.5933810000    -1.3760150000    -1.3639060000
   10      H      -2.9035160000    -1.3757280000     0.3937980000
   11      H       1.3541940000    -4.7834370000     0.2397400000
   12      C       0.0000000000     0.0000000000     0.0000000000
   13      C       0.3650030000     0.7826740000     1.0994460000
   14      C       0.9498850000     2.0369120000     0.7767210000
   15      H       0.2091350000     0.4484310000     2.1360880000
   16      C       1.0431590000     2.2368860000    -0.6125460000
   17      S       0.3982970000     0.8540940000    -1.4868090000
   18      C       1.4096090000     3.0227380000     1.8146090000
   19      H       1.2297260000     2.6369800000     2.8366760000
   20      H       0.8773460000     3.9928700000     1.7262390000
   21      H       2.4949100000     3.2385580000     1.7262280000
   22      H       1.4443340000     3.0971600000    -1.1615750000
 ----------------------------------------------------------------

   10   -1179.6746488181      5.03e-07  Convergence criterion met
 Total energy in the final basis set =    -1179.6746488181
        RIMP2         total energy =     -1181.6549180330 a.u.

                    Orbital Energies (a.u.)
 --------------------------------------------------------------

 Alpha MOs
 -- Occupied --
-91.9843 -91.9832 -11.2738 -11.2712 -11.2711 -11.2686 -11.2511 -11.2510
-11.2454 -11.2404 -11.2291 -11.2287  -8.9840  -8.9829  -6.6648  -6.6643
 -6.6637  -6.6637  -6.6632  -6.6625  -1.1794  -1.1489  -1.0404  -1.0221
 -0.9975  -0.9526  -0.9133  -0.8917  -0.7996  -0.7543  -0.7304  -0.6929
 -0.6613  -0.6168  -0.5826  -0.5792  -0.5710  -0.5691  -0.5513  -0.5326
 -0.5285  -0.5188  -0.5080  -0.4920  -0.4822  -0.4644  -0.4625  -0.3488
 -0.3353  -0.3200  -0.3026

          Ground-State Mulliken Net Atomic Charges

     Atom                 Charge (a.u.)
  ----------------------------------------
      1 C                    -0.206867
      2 C                    -0.253365
      3 C                     0.057396
      4 H                     0.182668
      5 C                    -0.059123
      6 S                     0.026745
      7 C                    -0.284246
      8 H                     0.106734
      9 H                     0.109869
     10 H                     0.110233
     11 H                     0.204155
     12 C                    -0.001270
     13 C                    -0.259508
     14 C                     0.040121
     15 H                     0.185797
     16 C                    -0.234790
     17 S                     0.027795
     18 C                    -0.269252
     19 H                     0.102858
     20 H                     0.107683
     21 H                     0.108049
     22 H                     0.198316
  ----------------------------------------
  Sum of atomic charges =     0.000000

                    Cartesian Multipole Moments
 -----------------------------------------------------------------
    Charge (ESU x 10^10)
                -0.0000
    Dipole Moment (Debye)
         X      -0.5588      Y       0.3615      Z       1.2150
       Tot       1.3853
    Quadrupole Moments (Debye-Ang)
        XX     -84.3893     XY       6.3866     YY     -70.9516
        XZ       1.5474     YZ       1.2780     ZZ     -86.3995

 Total job time:  578.99s(wall), 575.74s(cpu)
        *  Thank you very much for using Q-Chem.  Have a nice day.  *
