 Q-Chem 5.4, Q-Chem, Inc., Pleasanton, CA (2021)
 Q-Chem 5.4.0 for Intel X86 EM64T Linux

User input:
--------------------------------------------------------------
$molecule
0 1
C	-0.386946	-3.866725	-0.671636
C	0.306544	-3.703963	0.530345
C	0.533261	-2.357056	0.923770
H	0.651857	-4.561092	1.128109
C	0.000000	-1.440664	0.000000
S	-0.772250	-2.286957	-1.337557
C	1.260680	-1.978743	2.184153
H	1.583283	-2.878678	2.742769
H	0.622180	-1.376015	2.863347
H	2.168011	-1.375728	1.971094
H	-0.686807	-4.783437	-1.191474
C	0.000000	0.000000	0.000000
C	0.295399	0.811508	1.099446
C	0.768742	2.111949	0.776721
H	0.169256	0.464952	2.136088
C	0.844232	2.319291	-0.612546
S	0.322342	0.885558	-1.486809
C	1.140796	3.134091	1.814609
H	0.995218	2.734123	2.836676
H	0.526006	4.054142	1.726239
H	2.203157	3.443680	1.726228
H	1.168902	3.211257	-1.161575
$end

$rem
JOBTYPE		SP
EXCHANGE	HF
CORRELATION	pRIMP2
BASIS		cc-pvtz
METHOD		rimp2
AUX_BASIS	rimp2-cc-pvtz
SOLVENT_METHOD	PCM
PURECART	11111
SYMMETRY	false
MEM_TOTAL	110000
SCF_CONVERGENCE = 6
THRESH=10
$end

$solvent
dielectric 4.90
$end
--------------------------------------------------------------

             Standard Nuclear Orientation (Angstroms)
    I     Atom           X                Y                Z
 ----------------------------------------------------------------
    1      C      -0.3869460000    -3.8667250000    -0.6716360000
    2      C       0.3065440000    -3.7039630000     0.5303450000
    3      C       0.5332610000    -2.3570560000     0.9237700000
    4      H       0.6518570000    -4.5610920000     1.1281090000
    5      C       0.0000000000    -1.4406640000     0.0000000000
    6      S      -0.7722500000    -2.2869570000    -1.3375570000
    7      C       1.2606800000    -1.9787430000     2.1841530000
    8      H       1.5832830000    -2.8786780000     2.7427690000
    9      H       0.6221800000    -1.3760150000     2.8633470000
   10      H       2.1680110000    -1.3757280000     1.9710940000
   11      H      -0.6868070000    -4.7834370000    -1.1914740000
   12      C       0.0000000000     0.0000000000     0.0000000000
   13      C       0.2953990000     0.8115080000     1.0994460000
   14      C       0.7687420000     2.1119490000     0.7767210000
   15      H       0.1692560000     0.4649520000     2.1360880000
   16      C       0.8442320000     2.3192910000    -0.6125460000
   17      S       0.3223420000     0.8855580000    -1.4868090000
   18      C       1.1407960000     3.1340910000     1.8146090000
   19      H       0.9952180000     2.7341230000     2.8366760000
   20      H       0.5260060000     4.0541420000     1.7262390000
   21      H       2.2031570000     3.4436800000     1.7262280000
   22      H       1.1689020000     3.2112570000    -1.1615750000
 ----------------------------------------------------------------

   10   -1179.6779588007      5.04e-07  Convergence criterion met
 Total energy in the final basis set =    -1179.6779588007
        RIMP2         total energy =     -1181.6597707704 a.u.

                    Orbital Energies (a.u.)
 --------------------------------------------------------------

 Alpha MOs
 -- Occupied --
-91.9853 -91.9833 -11.2795 -11.2771 -11.2717 -11.2665 -11.2530 -11.2523
-11.2431 -11.2423 -11.2302 -11.2297  -8.9850  -8.9833  -6.6660  -6.6654
 -6.6648  -6.6643  -6.6637  -6.6631  -1.1814  -1.1499  -1.0419  -1.0260
 -0.9960  -0.9557  -0.9139  -0.8939  -0.8017  -0.7558  -0.7289  -0.7001
 -0.6612  -0.6147  -0.5897  -0.5813  -0.5707  -0.5633  -0.5515  -0.5388
 -0.5289  -0.5233  -0.5060  -0.4916  -0.4843  -0.4728  -0.4544  -0.3619
 -0.3449  -0.3392  -0.2730

          Ground-State Mulliken Net Atomic Charges

     Atom                 Charge (a.u.)
  ----------------------------------------
      1 C                    -0.213961
      2 C                    -0.248455
      3 C                     0.062111
      4 H                     0.184214
      5 C                    -0.035013
      6 S                     0.013150
      7 C                    -0.304773
      8 H                     0.115689
      9 H                     0.105992
     10 H                     0.118156
     11 H                     0.205992
     12 C                     0.021245
     13 C                    -0.292854
     14 C                     0.052541
     15 H                     0.193759
     16 C                    -0.252400
     17 S                     0.026394
     18 C                    -0.269863
     19 H                     0.102067
     20 H                     0.108785
     21 H                     0.108775
     22 H                     0.198450
  ----------------------------------------
  Sum of atomic charges =     0.000000

                    Cartesian Multipole Moments
 -----------------------------------------------------------------
    Charge (ESU x 10^10)
                -0.0000
    Dipole Moment (Debye)
         X       1.4599      Y       0.2713      Z       2.8005
       Tot       3.1699
    Quadrupole Moments (Debye-Ang)
        XX     -89.7685     XY       2.5142     YY     -69.9146
        XZ       3.1922     YZ      -0.9404     ZZ     -81.8190

 Total job time:  562.41s(wall), 559.78s(cpu)
        *  Thank you very much for using Q-Chem.  Have a nice day.  *
