 Q-Chem 5.4, Q-Chem, Inc., Pleasanton, CA (2021)
 Q-Chem 5.4.0 for Intel X86 EM64T Linux

User input:
--------------------------------------------------------------
$molecule
0 1
C	0.670924	-3.866725	0.388181
C	-0.530648	-3.703963	-0.306020
C	-0.923703	-2.357056	-0.533378
H	-1.128579	-4.561092	-0.651043
C	-0.000000	-1.440664	-0.000000
S	1.337567	-2.286957	0.772234
C	-2.183857	-1.978743	-1.261192
H	-2.742548	-2.878678	-1.583666
H	-1.970497	-1.376015	-2.168641
H	-2.863099	-1.375728	-0.623012
H	1.190530	-4.783437	0.688443
C	0.000000	0.000000	0.000000
C	0.555137	0.661535	1.099446
C	1.444710	1.721658	0.776721
H	0.318072	0.379023	2.136088
C	1.586563	1.890676	-0.612546
S	0.605781	0.721904	-1.486809
C	2.143920	2.554907	1.814609
H	1.870325	2.228851	2.836676
H	1.880882	3.629742	1.726239
H	3.248098	2.482476	1.726228
H	2.196723	2.617806	-1.161575
$end

$rem
JOBTYPE		SP
EXCHANGE	HF
CORRELATION	pRIMP2
BASIS		cc-pvtz
METHOD		rimp2
AUX_BASIS	rimp2-cc-pvtz
SOLVENT_METHOD	PCM
PURECART	11111
SYMMETRY	false
MEM_TOTAL	110000
SCF_CONVERGENCE = 6
THRESH=10
$end

$solvent
dielectric 4.90
$end
--------------------------------------------------------------

             Standard Nuclear Orientation (Angstroms)
    I     Atom           X                Y                Z
 ----------------------------------------------------------------
    1      C       0.6709240000    -3.8667250000     0.3881810000
    2      C      -0.5306480000    -3.7039630000    -0.3060200000
    3      C      -0.9237030000    -2.3570560000    -0.5333780000
    4      H      -1.1285790000    -4.5610920000    -0.6510430000
    5      C       0.0000000000    -1.4406640000     0.0000000000
    6      S       1.3375670000    -2.2869570000     0.7722340000
    7      C      -2.1838570000    -1.9787430000    -1.2611920000
    8      H      -2.7425480000    -2.8786780000    -1.5836660000
    9      H      -1.9704970000    -1.3760150000    -2.1686410000
   10      H      -2.8630990000    -1.3757280000    -0.6230120000
   11      H       1.1905300000    -4.7834370000     0.6884430000
   12      C       0.0000000000     0.0000000000     0.0000000000
   13      C       0.5551370000     0.6615350000     1.0994460000
   14      C       1.4447100000     1.7216580000     0.7767210000
   15      H       0.3180720000     0.3790230000     2.1360880000
   16      C       1.5865630000     1.8906760000    -0.6125460000
   17      S       0.6057810000     0.7219040000    -1.4868090000
   18      C       2.1439200000     2.5549070000     1.8146090000
   19      H       1.8703250000     2.2288510000     2.8366760000
   20      H       1.8808820000     3.6297420000     1.7262390000
   21      H       3.2480980000     2.4824760000     1.7262280000
   22      H       2.1967230000     2.6178060000    -1.1615750000
 ----------------------------------------------------------------

   10   -1179.6577451365      5.43e-07  Convergence criterion met
 Total energy in the final basis set =    -1179.6577451365
        RIMP2         total energy =     -1181.6431953478 a.u.

                    Orbital Energies (a.u.)
 --------------------------------------------------------------

 Alpha MOs
 -- Occupied --
-91.9842 -91.9817 -11.2759 -11.2716 -11.2677 -11.2673 -11.2529 -11.2504
-11.2455 -11.2393 -11.2299 -11.2276  -8.9841  -8.9815  -6.6650  -6.6643
 -6.6638  -6.6623  -6.6617  -6.6611  -1.1830  -1.1479  -1.0424  -1.0207
 -0.9995  -0.9504  -0.9139  -0.8913  -0.7982  -0.7578  -0.7293  -0.6907
 -0.6596  -0.6182  -0.5834  -0.5801  -0.5720  -0.5693  -0.5505  -0.5341
 -0.5277  -0.5173  -0.5083  -0.4926  -0.4754  -0.4666  -0.4596  -0.3478
 -0.3379  -0.3353  -0.2854

          Ground-State Mulliken Net Atomic Charges

     Atom                 Charge (a.u.)
  ----------------------------------------
      1 C                    -0.221616
      2 C                    -0.247492
      3 C                     0.035198
      4 H                     0.182107
      5 C                    -0.024961
      6 S                     0.021477
      7 C                    -0.288016
      8 H                     0.107851
      9 H                     0.107983
     10 H                     0.110396
     11 H                     0.203298
     12 C                    -0.021516
     13 C                    -0.285038
     14 C                     0.054385
     15 H                     0.193385
     16 C                    -0.218066
     17 S                     0.038028
     18 C                    -0.266434
     19 H                     0.103244
     20 H                     0.108044
     21 H                     0.108034
     22 H                     0.199710
  ----------------------------------------
  Sum of atomic charges =     0.000000

                    Cartesian Multipole Moments
 -----------------------------------------------------------------
    Charge (ESU x 10^10)
                -0.0000
    Dipole Moment (Debye)
         X       0.3537      Y       0.6176      Z       0.7682
       Tot       1.0473
    Quadrupole Moments (Debye-Ang)
        XX     -83.0834     XY       7.7276     YY     -74.2589
        XZ       3.2961     YZ       1.8318     ZZ     -84.7745

 Total job time:  560.77s(wall), 556.72s(cpu)
        *  Thank you very much for using Q-Chem.  Have a nice day.  *
