 Q-Chem 5.4, Q-Chem, Inc., Pleasanton, CA (2021)
 Q-Chem 5.4.0 for Intel X86 EM64T Linux

User input:
--------------------------------------------------------------
$molecule
0 1
C	0.265779	-3.866725	-0.728138
C	-0.209225	-3.703963	0.575726
C	-0.364875	-2.357056	1.002290
H	-0.445176	-4.561092	1.224486
C	0.000000	-1.440664	0.000000
S	0.528236	-2.286957	-1.451343
C	-0.862808	-1.978743	2.369683
H	-1.083368	-2.878678	2.975883
H	-1.793522	-1.376015	2.317142
H	-0.116375	-1.375728	2.927787
H	0.471251	-4.783437	-1.291990
C	0.000000	0.000000	0.000000
C	0.223548	0.834165	1.099446
C	0.581748	2.170912	0.776721
H	0.128089	0.477934	2.136088
C	0.638880	2.384045	-0.612546
S	0.243934	0.910282	-1.486809
C	0.863301	3.221592	1.814609
H	0.753137	2.810458	2.836676
H	0.170663	4.084559	1.726239
H	1.894637	3.622593	1.726228
H	0.884575	3.300913	-1.161575
$end

$rem
JOBTYPE		SP
EXCHANGE	HF
CORRELATION	pRIMP2
BASIS		cc-pvtz
METHOD		rimp2
AUX_BASIS	rimp2-cc-pvtz
SOLVENT_METHOD	PCM
PURECART	11111
SYMMETRY	false
MEM_TOTAL	110000
SCF_CONVERGENCE = 6
THRESH=10
$end

$solvent
dielectric 4.90
$end
--------------------------------------------------------------

             Standard Nuclear Orientation (Angstroms)
    I     Atom           X                Y                Z
 ----------------------------------------------------------------
    1      C       0.2657790000    -3.8667250000    -0.7281380000
    2      C      -0.2092250000    -3.7039630000     0.5757260000
    3      C      -0.3648750000    -2.3570560000     1.0022900000
    4      H      -0.4451760000    -4.5610920000     1.2244860000
    5      C       0.0000000000    -1.4406640000     0.0000000000
    6      S       0.5282360000    -2.2869570000    -1.4513430000
    7      C      -0.8628080000    -1.9787430000     2.3696830000
    8      H      -1.0833680000    -2.8786780000     2.9758830000
    9      H      -1.7935220000    -1.3760150000     2.3171420000
   10      H      -0.1163750000    -1.3757280000     2.9277870000
   11      H       0.4712510000    -4.7834370000    -1.2919900000
   12      C       0.0000000000     0.0000000000     0.0000000000
   13      C       0.2235480000     0.8341650000     1.0994460000
   14      C       0.5817480000     2.1709120000     0.7767210000
   15      H       0.1280890000     0.4779340000     2.1360880000
   16      C       0.6388800000     2.3840450000    -0.6125460000
   17      S       0.2439340000     0.9102820000    -1.4868090000
   18      C       0.8633010000     3.2215920000     1.8146090000
   19      H       0.7531370000     2.8104580000     2.8366760000
   20      H       0.1706630000     4.0845590000     1.7262390000
   21      H       1.8946370000     3.6225930000     1.7262280000
   22      H       0.8845750000     3.3009130000    -1.1615750000
 ----------------------------------------------------------------

   10   -1179.6813014265      4.89e-07  Convergence criterion met
 Total energy in the final basis set =    -1179.6813014265
        RIMP2         total energy =     -1181.6622726409 a.u.

                    Orbital Energies (a.u.)
 --------------------------------------------------------------

 Alpha MOs
 -- Occupied --
-91.9862 -91.9849 -11.2826 -11.2784 -11.2708 -11.2656 -11.2527 -11.2519
-11.2434 -11.2420 -11.2311 -11.2296  -8.9860  -8.9848  -6.6669  -6.6664
 -6.6658  -6.6657  -6.6651  -6.6645  -1.1819  -1.1502  -1.0424  -1.0267
 -0.9961  -0.9567  -0.9138  -0.8946  -0.8033  -0.7562  -0.7281  -0.7001
 -0.6619  -0.6144  -0.5903  -0.5819  -0.5703  -0.5637  -0.5523  -0.5396
 -0.5304  -0.5227  -0.5054  -0.4909  -0.4868  -0.4773  -0.4516  -0.3686
 -0.3463  -0.3377  -0.2699

          Ground-State Mulliken Net Atomic Charges

     Atom                 Charge (a.u.)
  ----------------------------------------
      1 C                    -0.218940
      2 C                    -0.249558
      3 C                     0.057077
      4 H                     0.184025
      5 C                    -0.039064
      6 S                     0.010472
      7 C                    -0.312404
      8 H                     0.116181
      9 H                     0.117339
     10 H                     0.105281
     11 H                     0.206546
     12 C                     0.022053
     13 C                    -0.226095
     14 C                     0.017686
     15 H                     0.193438
     16 C                    -0.238356
     17 S                     0.006434
     18 C                    -0.271574
     19 H                     0.101528
     20 H                     0.108757
     21 H                     0.108910
     22 H                     0.200263
  ----------------------------------------
  Sum of atomic charges =     0.000000

                    Cartesian Multipole Moments
 -----------------------------------------------------------------
    Charge (ESU x 10^10)
                -0.0000
    Dipole Moment (Debye)
         X       0.0106      Y       0.3043      Z       2.8310
       Tot       2.8473
    Quadrupole Moments (Debye-Ang)
        XX     -91.2240     XY       3.5335     YY     -69.3779
        XZ      -1.8649     YZ      -1.0811     ZZ     -80.8465

 Total job time:  562.42s(wall), 557.41s(cpu)
        *  Thank you very much for using Q-Chem.  Have a nice day.  *
