 Q-Chem 5.4, Q-Chem, Inc., Pleasanton, CA (2021)
 Q-Chem 5.4.0 for Intel X86 EM64T Linux

User input:
--------------------------------------------------------------
$molecule
0 1
C	-0.265779	-3.866725	0.728138
C	0.209225	-3.703963	-0.575726
C	0.364875	-2.357056	-1.002290
H	0.445176	-4.561092	-1.224486
C	0.000000	-1.440664	0.000000
S	-0.528236	-2.286957	1.451343
C	0.862808	-1.978743	-2.369683
H	1.083368	-2.878678	-2.975883
H	1.793522	-1.376015	-2.317142
H	0.116375	-1.375728	-2.927787
H	-0.471251	-4.783437	1.291990
C	0.000000	0.000000	0.000000
C	0.661577	0.555087	1.099446
C	1.721724	1.444630	0.776721
H	0.379056	0.318032	2.136088
C	1.890772	1.586449	-0.612546
S	0.721935	0.605744	-1.486809
C	2.555004	2.143805	1.814609
H	2.228946	1.870211	2.836676
H	2.482605	3.247987	1.726239
H	3.629830	1.880735	1.726228
H	2.617927	2.196579	-1.161575
$end

$rem
JOBTYPE		SP
EXCHANGE	HF
CORRELATION	pRIMP2
BASIS		cc-pvtz
METHOD		rimp2
AUX_BASIS	rimp2-cc-pvtz
SOLVENT_METHOD	PCM
PURECART	11111
SYMMETRY	false
MEM_TOTAL	110000
SCF_CONVERGENCE = 6
THRESH=10
$end

$solvent
dielectric 4.90
$end
--------------------------------------------------------------

             Standard Nuclear Orientation (Angstroms)
    I     Atom           X                Y                Z
 ----------------------------------------------------------------
    1      C      -0.2657790000    -3.8667250000     0.7281380000
    2      C       0.2092250000    -3.7039630000    -0.5757260000
    3      C       0.3648750000    -2.3570560000    -1.0022900000
    4      H       0.4451760000    -4.5610920000    -1.2244860000
    5      C       0.0000000000    -1.4406640000     0.0000000000
    6      S      -0.5282360000    -2.2869570000     1.4513430000
    7      C       0.8628080000    -1.9787430000    -2.3696830000
    8      H       1.0833680000    -2.8786780000    -2.9758830000
    9      H       1.7935220000    -1.3760150000    -2.3171420000
   10      H       0.1163750000    -1.3757280000    -2.9277870000
   11      H      -0.4712510000    -4.7834370000     1.2919900000
   12      C       0.0000000000     0.0000000000     0.0000000000
   13      C       0.6615770000     0.5550870000     1.0994460000
   14      C       1.7217240000     1.4446300000     0.7767210000
   15      H       0.3790560000     0.3180320000     2.1360880000
   16      C       1.8907720000     1.5864490000    -0.6125460000
   17      S       0.7219350000     0.6057440000    -1.4868090000
   18      C       2.5550040000     2.1438050000     1.8146090000
   19      H       2.2289460000     1.8702110000     2.8366760000
   20      H       2.4826050000     3.2479870000     1.7262390000
   21      H       3.6298300000     1.8807350000     1.7262280000
   22      H       2.6179270000     2.1965790000    -1.1615750000
 ----------------------------------------------------------------

   11   -1179.6194925905      5.62e-07  Convergence criterion met
 Total energy in the final basis set =    -1179.6194925905
        RIMP2         total energy =     -1181.6162839859 a.u.

                    Orbital Energies (a.u.)
 --------------------------------------------------------------

 Alpha MOs
 -- Occupied --
-91.9813 -91.9757 -11.2807 -11.2803 -11.2661 -11.2603 -11.2567 -11.2529
-11.2393 -11.2382 -11.2304 -11.2226  -8.9826  -8.9761  -6.6632  -6.6625
 -6.6621  -6.6571  -6.6565  -6.6559  -1.1886  -1.1461  -1.0461  -1.0233
 -0.9982  -0.9506  -0.9107  -0.8959  -0.7945  -0.7651  -0.7243  -0.6947
 -0.6561  -0.6185  -0.5883  -0.5831  -0.5769  -0.5692  -0.5504  -0.5347
 -0.5239  -0.5227  -0.5117  -0.4946  -0.4718  -0.4579  -0.4437  -0.3694
 -0.3388  -0.3338  -0.2634

          Ground-State Mulliken Net Atomic Charges

     Atom                 Charge (a.u.)
  ----------------------------------------
      1 C                    -0.232550
      2 C                    -0.250249
      3 C                     0.017387
      4 H                     0.183185
      5 C                    -0.009155
      6 S                    -0.017460
      7 C                    -0.284494
      8 H                     0.104015
      9 H                     0.116162
     10 H                     0.105098
     11 H                     0.201858
     12 C                    -0.062853
     13 C                    -0.143092
     14 C                    -0.007545
     15 H                     0.185380
     16 C                    -0.202037
     17 S                     0.044320
     18 C                    -0.266169
     19 H                     0.103219
     20 H                     0.107657
     21 H                     0.106117
     22 H                     0.201206
  ----------------------------------------
  Sum of atomic charges =     0.000000

                    Cartesian Multipole Moments
 -----------------------------------------------------------------
    Charge (ESU x 10^10)
                -0.0000
    Dipole Moment (Debye)
         X       2.8284      Y       1.0971      Z      -0.1430
       Tot       3.0371
    Quadrupole Moments (Debye-Ang)
        XX     -84.5922     XY       5.0769     YY     -79.0905
        XZ      -1.7074     YZ       2.7195     ZZ     -80.5623

 Total job time:  631.51s(wall), 627.75s(cpu)
        *  Thank you very much for using Q-Chem.  Have a nice day.  *
