 Q-Chem 5.4, Q-Chem, Inc., Pleasanton, CA (2021)
 Q-Chem 5.4.0 for Intel X86 EM64T Linux

User input:
--------------------------------------------------------------
$molecule
0 1
C	-0.386946	-3.866725	-0.671636
C	0.306544	-3.703963	0.530345
C	0.533261	-2.357056	0.923770
H	0.651857	-4.561092	1.128109
C	0.000000	-1.440664	0.000000
S	-0.772250	-2.286957	-1.337557
C	1.260680	-1.978743	2.184153
H	1.583283	-2.878678	2.742769
H	0.622180	-1.376015	2.863347
H	2.168011	-1.375728	1.971094
H	-0.686807	-4.783437	-1.191474
C	0.000000	0.000000	0.000000
C	0.223548	0.834165	1.099446
C	0.581748	2.170912	0.776721
H	0.128089	0.477934	2.136088
C	0.638880	2.384045	-0.612546
S	0.243934	0.910282	-1.486809
C	0.863301	3.221592	1.814609
H	0.753137	2.810458	2.836676
H	0.170663	4.084559	1.726239
H	1.894637	3.622593	1.726228
H	0.884575	3.300913	-1.161575
$end

$rem
JOBTYPE		SP
EXCHANGE	HF
CORRELATION	pRIMP2
BASIS		cc-pvtz
METHOD		rimp2
AUX_BASIS	rimp2-cc-pvtz
SOLVENT_METHOD	PCM
PURECART	11111
SYMMETRY	false
MEM_TOTAL	110000
SCF_CONVERGENCE = 6
THRESH=10
$end

$solvent
dielectric 4.90
$end
--------------------------------------------------------------

             Standard Nuclear Orientation (Angstroms)
    I     Atom           X                Y                Z
 ----------------------------------------------------------------
    1      C      -0.3869460000    -3.8667250000    -0.6716360000
    2      C       0.3065440000    -3.7039630000     0.5303450000
    3      C       0.5332610000    -2.3570560000     0.9237700000
    4      H       0.6518570000    -4.5610920000     1.1281090000
    5      C       0.0000000000    -1.4406640000     0.0000000000
    6      S      -0.7722500000    -2.2869570000    -1.3375570000
    7      C       1.2606800000    -1.9787430000     2.1841530000
    8      H       1.5832830000    -2.8786780000     2.7427690000
    9      H       0.6221800000    -1.3760150000     2.8633470000
   10      H       2.1680110000    -1.3757280000     1.9710940000
   11      H      -0.6868070000    -4.7834370000    -1.1914740000
   12      C       0.0000000000     0.0000000000     0.0000000000
   13      C       0.2235480000     0.8341650000     1.0994460000
   14      C       0.5817480000     2.1709120000     0.7767210000
   15      H       0.1280890000     0.4779340000     2.1360880000
   16      C       0.6388800000     2.3840450000    -0.6125460000
   17      S       0.2439340000     0.9102820000    -1.4868090000
   18      C       0.8633010000     3.2215920000     1.8146090000
   19      H       0.7531370000     2.8104580000     2.8366760000
   20      H       0.1706630000     4.0845590000     1.7262390000
   21      H       1.8946370000     3.6225930000     1.7262280000
   22      H       0.8845750000     3.3009130000    -1.1615750000
 ----------------------------------------------------------------

   10   -1179.6816417448      5.09e-07  Convergence criterion met
 Total energy in the final basis set =    -1179.6816417448
        RIMP2         total energy =     -1181.6624200358 a.u.

                    Orbital Energies (a.u.)
 --------------------------------------------------------------

 Alpha MOs
 -- Occupied --
-91.9856 -91.9841 -11.2809 -11.2772 -11.2723 -11.2653 -11.2537 -11.2522
-11.2434 -11.2413 -11.2305 -11.2295  -8.9853  -8.9841  -6.6662  -6.6656
 -6.6650  -6.6650  -6.6645  -6.6638  -1.1811  -1.1501  -1.0418  -1.0263
 -0.9961  -0.9559  -0.9140  -0.8940  -0.8022  -0.7559  -0.7287  -0.6999
 -0.6617  -0.6147  -0.5893  -0.5813  -0.5706  -0.5636  -0.5517  -0.5387
 -0.5292  -0.5231  -0.5059  -0.4916  -0.4859  -0.4733  -0.4546  -0.3623
 -0.3449  -0.3394  -0.2733

          Ground-State Mulliken Net Atomic Charges

     Atom                 Charge (a.u.)
  ----------------------------------------
      1 C                    -0.213794
      2 C                    -0.248514
      3 C                     0.062564
      4 H                     0.184196
      5 C                    -0.036659
      6 S                     0.014442
      7 C                    -0.303770
      8 H                     0.115487
      9 H                     0.106345
     10 H                     0.118030
     11 H                     0.206180
     12 C                     0.021792
     13 C                    -0.283713
     14 C                     0.046758
     15 H                     0.193420
     16 C                    -0.254214
     17 S                     0.023985
     18 C                    -0.270492
     19 H                     0.101956
     20 H                     0.108744
     21 H                     0.108853
     22 H                     0.198406
  ----------------------------------------
  Sum of atomic charges =     0.000000

                    Cartesian Multipole Moments
 -----------------------------------------------------------------
    Charge (ESU x 10^10)
                -0.0000
    Dipole Moment (Debye)
         X       1.2698      Y       0.2066      Z       2.7790
       Tot       3.0623
    Quadrupole Moments (Debye-Ang)
        XX     -90.3384     XY       1.7072     YY     -69.2001
        XZ       3.1331     YZ      -0.8877     ZZ     -81.8083

 Total job time:  563.60s(wall), 558.21s(cpu)
        *  Thank you very much for using Q-Chem.  Have a nice day.  *
