 Q-Chem 5.4, Q-Chem, Inc., Pleasanton, CA (2021)
 Q-Chem 5.4.0 for Intel X86 EM64T Linux

User input:
--------------------------------------------------------------
$molecule
0 1
C	0.671636	-3.866725	-0.386946
C	-0.530345	-3.703963	0.306544
C	-0.923770	-2.357056	0.533261
H	-1.128109	-4.561092	0.651857
C	-0.000000	-1.440664	-0.000000
S	1.337557	-2.286957	-0.772250
C	-2.184153	-1.978743	1.260680
H	-2.742769	-2.878678	1.583283
H	-2.863347	-1.376015	0.622180
H	-1.971094	-1.375728	2.168011
H	1.191474	-4.783437	-0.686807
C	0.000000	0.000000	0.000000
C	0.555137	0.661535	1.099446
C	1.444710	1.721658	0.776721
H	0.318072	0.379023	2.136088
C	1.586563	1.890676	-0.612546
S	0.605781	0.721904	-1.486809
C	2.143920	2.554907	1.814609
H	1.870325	2.228851	2.836676
H	1.880882	3.629742	1.726239
H	3.248098	2.482476	1.726228
H	2.196723	2.617806	-1.161575
$end

$rem
JOBTYPE		SP
EXCHANGE	HF
CORRELATION	pRIMP2
BASIS		cc-pvtz
METHOD		rimp2
AUX_BASIS	rimp2-cc-pvtz
SOLVENT_METHOD	PCM
PURECART	11111
SYMMETRY	false
MEM_TOTAL	110000
SCF_CONVERGENCE = 6
THRESH=10
$end

$solvent
dielectric 4.90
$end
--------------------------------------------------------------

             Standard Nuclear Orientation (Angstroms)
    I     Atom           X                Y                Z
 ----------------------------------------------------------------
    1      C       0.6716360000    -3.8667250000    -0.3869460000
    2      C      -0.5303450000    -3.7039630000     0.3065440000
    3      C      -0.9237700000    -2.3570560000     0.5332610000
    4      H      -1.1281090000    -4.5610920000     0.6518570000
    5      C       0.0000000000    -1.4406640000     0.0000000000
    6      S       1.3375570000    -2.2869570000    -0.7722500000
    7      C      -2.1841530000    -1.9787430000     1.2606800000
    8      H      -2.7427690000    -2.8786780000     1.5832830000
    9      H      -2.8633470000    -1.3760150000     0.6221800000
   10      H      -1.9710940000    -1.3757280000     2.1680110000
   11      H       1.1914740000    -4.7834370000    -0.6868070000
   12      C       0.0000000000     0.0000000000     0.0000000000
   13      C       0.5551370000     0.6615350000     1.0994460000
   14      C       1.4447100000     1.7216580000     0.7767210000
   15      H       0.3180720000     0.3790230000     2.1360880000
   16      C       1.5865630000     1.8906760000    -0.6125460000
   17      S       0.6057810000     0.7219040000    -1.4868090000
   18      C       2.1439200000     2.5549070000     1.8146090000
   19      H       1.8703250000     2.2288510000     2.8366760000
   20      H       1.8808820000     3.6297420000     1.7262390000
   21      H       3.2480980000     2.4824760000     1.7262280000
   22      H       2.1967230000     2.6178060000    -1.1615750000
 ----------------------------------------------------------------

   10   -1179.6545454937      6.11e-07  Convergence criterion met
 Total energy in the final basis set =    -1179.6545454937
        RIMP2         total energy =     -1181.6404474304 a.u.

                    Orbital Energies (a.u.)
 --------------------------------------------------------------

 Alpha MOs
 -- Occupied --
-91.9852 -91.9802 -11.2763 -11.2735 -11.2688 -11.2644 -11.2534 -11.2524
-11.2431 -11.2384 -11.2302 -11.2271  -8.9853  -8.9801  -6.6661  -6.6654
 -6.6650  -6.6609  -6.6604  -6.6597  -1.1835  -1.1475  -1.0432  -1.0203
 -0.9971  -0.9543  -0.9105  -0.8921  -0.8001  -0.7496  -0.7352  -0.6940
 -0.6583  -0.6173  -0.5854  -0.5793  -0.5692  -0.5673  -0.5506  -0.5340
 -0.5315  -0.5179  -0.5086  -0.4897  -0.4757  -0.4677  -0.4581  -0.3579
 -0.3379  -0.3268  -0.2832

          Ground-State Mulliken Net Atomic Charges

     Atom                 Charge (a.u.)
  ----------------------------------------
      1 C                    -0.228551
      2 C                    -0.248074
      3 C                     0.033619
      4 H                     0.181331
      5 C                    -0.034968
      6 S                     0.025309
      7 C                    -0.286747
      8 H                     0.106659
      9 H                     0.109110
     10 H                     0.105639
     11 H                     0.202380
     12 C                    -0.056829
     13 C                    -0.166271
     14 C                     0.003806
     15 H                     0.189321
     16 C                    -0.204705
     17 S                     0.019638
     18 C                    -0.268553
     19 H                     0.102626
     20 H                     0.107982
     21 H                     0.107439
     22 H                     0.199839
  ----------------------------------------
  Sum of atomic charges =     0.000000

                    Cartesian Multipole Moments
 -----------------------------------------------------------------
    Charge (ESU x 10^10)
                -0.0000
    Dipole Moment (Debye)
         X       0.4454      Y       0.8851      Z       2.2293
       Tot       2.4396
    Quadrupole Moments (Debye-Ang)
        XX     -83.2016     XY       7.6790     YY     -75.1695
        XZ      -2.1089     YZ      -0.4268     ZZ     -84.6421

 Total job time:  569.53s(wall), 565.72s(cpu)
        *  Thank you very much for using Q-Chem.  Have a nice day.  *
