 Q-Chem 5.4, Q-Chem, Inc., Pleasanton, CA (2021)
 Q-Chem 5.4.0 for Intel X86 EM64T Linux

User input:
--------------------------------------------------------------
$molecule
0 1
C	0.497696	-3.866725	0.594240
C	-0.393981	-3.703963	-0.469057
C	-0.685571	-2.357056	-0.817136
H	-0.837848	-4.561092	-0.997777
C	-0.000000	-1.440664	-0.000000
S	0.992782	-2.286957	1.183137
C	-1.620802	-1.978743	-1.932056
H	-2.035506	-2.878678	-2.426166
H	-1.109943	-1.376015	-2.711806
H	-2.477350	-1.375728	-1.564678
H	0.883271	-4.783437	1.054110
C	0.000000	0.000000	0.000000
C	0.555137	0.661535	1.099446
C	1.444710	1.721658	0.776721
H	0.318072	0.379023	2.136088
C	1.586563	1.890676	-0.612546
S	0.605781	0.721904	-1.486809
C	2.143920	2.554907	1.814609
H	1.870325	2.228851	2.836676
H	1.880882	3.629742	1.726239
H	3.248098	2.482476	1.726228
H	2.196723	2.617806	-1.161575
$end

$rem
JOBTYPE		SP
EXCHANGE	HF
CORRELATION	pRIMP2
BASIS		cc-pvtz
METHOD		rimp2
AUX_BASIS	rimp2-cc-pvtz
SOLVENT_METHOD	PCM
PURECART	11111
SYMMETRY	false
MEM_TOTAL	110000
SCF_CONVERGENCE = 6
THRESH=10
$end

$solvent
dielectric 4.90
$end
--------------------------------------------------------------

             Standard Nuclear Orientation (Angstroms)
    I     Atom           X                Y                Z
 ----------------------------------------------------------------
    1      C       0.4976960000    -3.8667250000     0.5942400000
    2      C      -0.3939810000    -3.7039630000    -0.4690570000
    3      C      -0.6855710000    -2.3570560000    -0.8171360000
    4      H      -0.8378480000    -4.5610920000    -0.9977770000
    5      C       0.0000000000    -1.4406640000     0.0000000000
    6      S       0.9927820000    -2.2869570000     1.1831370000
    7      C      -1.6208020000    -1.9787430000    -1.9320560000
    8      H      -2.0355060000    -2.8786780000    -2.4261660000
    9      H      -1.1099430000    -1.3760150000    -2.7118060000
   10      H      -2.4773500000    -1.3757280000    -1.5646780000
   11      H       0.8832710000    -4.7834370000     1.0541100000
   12      C       0.0000000000     0.0000000000     0.0000000000
   13      C       0.5551370000     0.6615350000     1.0994460000
   14      C       1.4447100000     1.7216580000     0.7767210000
   15      H       0.3180720000     0.3790230000     2.1360880000
   16      C       1.5865630000     1.8906760000    -0.6125460000
   17      S       0.6057810000     0.7219040000    -1.4868090000
   18      C       2.1439200000     2.5549070000     1.8146090000
   19      H       1.8703250000     2.2288510000     2.8366760000
   20      H       1.8808820000     3.6297420000     1.7262390000
   21      H       3.2480980000     2.4824760000     1.7262280000
   22      H       2.1967230000     2.6178060000    -1.1615750000
 ----------------------------------------------------------------

   10   -1179.6575409880      5.57e-07  Convergence criterion met
 Total energy in the final basis set =    -1179.6575409880
        RIMP2         total energy =     -1181.6441859072 a.u.

                    Orbital Energies (a.u.)
 --------------------------------------------------------------

 Alpha MOs
 -- Occupied --
-91.9851 -91.9820 -11.2762 -11.2742 -11.2706 -11.2656 -11.2539 -11.2503
-11.2442 -11.2398 -11.2302 -11.2282  -8.9851  -8.9818  -6.6660  -6.6653
 -6.6648  -6.6626  -6.6621  -6.6614  -1.1842  -1.1482  -1.0433  -1.0218
 -1.0005  -0.9500  -0.9146  -0.8923  -0.7985  -0.7621  -0.7258  -0.6913
 -0.6598  -0.6180  -0.5843  -0.5801  -0.5753  -0.5698  -0.5510  -0.5346
 -0.5271  -0.5176  -0.5084  -0.4947  -0.4778  -0.4682  -0.4556  -0.3529
 -0.3442  -0.3399  -0.2740

          Ground-State Mulliken Net Atomic Charges

     Atom                 Charge (a.u.)
  ----------------------------------------
      1 C                    -0.231603
      2 C                    -0.242162
      3 C                     0.018252
      4 H                     0.182684
      5 C                     0.000694
      6 S                     0.016186
      7 C                    -0.298981
      8 H                     0.110255
      9 H                     0.109511
     10 H                     0.111644
     11 H                     0.203174
     12 C                    -0.017183
     13 C                    -0.281287
     14 C                     0.051359
     15 H                     0.194249
     16 C                    -0.224180
     17 S                     0.043711
     18 C                    -0.266487
     19 H                     0.103546
     20 H                     0.108494
     21 H                     0.108572
     22 H                     0.199551
  ----------------------------------------
  Sum of atomic charges =     0.000000

                    Cartesian Multipole Moments
 -----------------------------------------------------------------
    Charge (ESU x 10^10)
                -0.0000
    Dipole Moment (Debye)
         X       0.6861      Y       0.7309      Z       0.3716
       Tot       1.0691
    Quadrupole Moments (Debye-Ang)
        XX     -85.1388     XY       7.3699     YY     -74.5242
        XZ       3.6841     YZ       2.4758     ZZ     -82.6110

 Total job time:  564.70s(wall), 557.26s(cpu)
        *  Thank you very much for using Q-Chem.  Have a nice day.  *
