 Q-Chem 5.4, Q-Chem, Inc., Pleasanton, CA (2021)
 Q-Chem 5.4.0 for Intel X86 EM64T Linux

User input:
--------------------------------------------------------------
$molecule
0 1
C	0.388181	-3.866725	-0.670924
C	-0.306020	-3.703963	0.530648
C	-0.533378	-2.357056	0.923703
H	-0.651043	-4.561092	1.128579
C	0.000000	-1.440664	0.000000
S	0.772234	-2.286957	-1.337567
C	-1.261192	-1.978743	2.183857
H	-1.583666	-2.878678	2.742548
H	-2.168641	-1.376015	1.970497
H	-0.623012	-1.375728	2.863099
H	0.688443	-4.783437	-1.190530
C	0.000000	0.000000	0.000000
C	0.223548	0.834165	1.099446
C	0.581748	2.170912	0.776721
H	0.128089	0.477934	2.136088
C	0.638880	2.384045	-0.612546
S	0.243934	0.910282	-1.486809
C	0.863301	3.221592	1.814609
H	0.753137	2.810458	2.836676
H	0.170663	4.084559	1.726239
H	1.894637	3.622593	1.726228
H	0.884575	3.300913	-1.161575
$end

$rem
JOBTYPE		SP
EXCHANGE	HF
CORRELATION	pRIMP2
BASIS		cc-pvtz
METHOD		rimp2
AUX_BASIS	rimp2-cc-pvtz
SOLVENT_METHOD	PCM
PURECART	11111
SYMMETRY	false
MEM_TOTAL	110000
SCF_CONVERGENCE = 6
THRESH=10
$end

$solvent
dielectric 4.90
$end
--------------------------------------------------------------

             Standard Nuclear Orientation (Angstroms)
    I     Atom           X                Y                Z
 ----------------------------------------------------------------
    1      C       0.3881810000    -3.8667250000    -0.6709240000
    2      C      -0.3060200000    -3.7039630000     0.5306480000
    3      C      -0.5333780000    -2.3570560000     0.9237030000
    4      H      -0.6510430000    -4.5610920000     1.1285790000
    5      C       0.0000000000    -1.4406640000     0.0000000000
    6      S       0.7722340000    -2.2869570000    -1.3375670000
    7      C      -1.2611920000    -1.9787430000     2.1838570000
    8      H      -1.5836660000    -2.8786780000     2.7425480000
    9      H      -2.1686410000    -1.3760150000     1.9704970000
   10      H      -0.6230120000    -1.3757280000     2.8630990000
   11      H       0.6884430000    -4.7834370000    -1.1905300000
   12      C       0.0000000000     0.0000000000     0.0000000000
   13      C       0.2235480000     0.8341650000     1.0994460000
   14      C       0.5817480000     2.1709120000     0.7767210000
   15      H       0.1280890000     0.4779340000     2.1360880000
   16      C       0.6388800000     2.3840450000    -0.6125460000
   17      S       0.2439340000     0.9102820000    -1.4868090000
   18      C       0.8633010000     3.2215920000     1.8146090000
   19      H       0.7531370000     2.8104580000     2.8366760000
   20      H       0.1706630000     4.0845590000     1.7262390000
   21      H       1.8946370000     3.6225930000     1.7262280000
   22      H       0.8845750000     3.3009130000    -1.1615750000
 ----------------------------------------------------------------

   10   -1179.6819263910      4.94e-07  Convergence criterion met
 Total energy in the final basis set =    -1179.6819263910
        RIMP2         total energy =     -1181.6624186937 a.u.

                    Orbital Energies (a.u.)
 --------------------------------------------------------------

 Alpha MOs
 -- Occupied --
-91.9865 -91.9850 -11.2821 -11.2776 -11.2704 -11.2656 -11.2527 -11.2515
-11.2430 -11.2425 -11.2305 -11.2296  -8.9861  -8.9849  -6.6671  -6.6665
 -6.6659  -6.6658  -6.6652  -6.6646  -1.1814  -1.1501  -1.0422  -1.0258
 -0.9962  -0.9565  -0.9132  -0.8942  -0.8031  -0.7552  -0.7290  -0.6989
 -0.6618  -0.6147  -0.5887  -0.5813  -0.5702  -0.5642  -0.5523  -0.5383
 -0.5304  -0.5220  -0.5063  -0.4909  -0.4865  -0.4758  -0.4536  -0.3648
 -0.3442  -0.3386  -0.2726

          Ground-State Mulliken Net Atomic Charges

     Atom                 Charge (a.u.)
  ----------------------------------------
      1 C                    -0.219273
      2 C                    -0.248433
      3 C                     0.047317
      4 H                     0.183936
      5 C                    -0.034860
      6 S                     0.014310
      7 C                    -0.303298
      8 H                     0.113157
      9 H                     0.115640
     10 H                     0.106172
     11 H                     0.205765
     12 C                     0.012325
     13 C                    -0.220549
     14 C                     0.014712
     15 H                     0.192826
     16 C                    -0.234833
     17 S                     0.008188
     18 C                    -0.272053
     19 H                     0.101757
     20 H                     0.108642
     21 H                     0.108859
     22 H                     0.199693
  ----------------------------------------
  Sum of atomic charges =     0.000000

                    Cartesian Multipole Moments
 -----------------------------------------------------------------
    Charge (ESU x 10^10)
                -0.0000
    Dipole Moment (Debye)
         X      -0.2180      Y       0.3409      Z       2.7179
       Tot       2.7478
    Quadrupole Moments (Debye-Ang)
        XX     -90.3537     XY       3.8449     YY     -69.5069
        XZ      -2.5717     YZ      -0.8952     ZZ     -81.7412

 Total job time:  559.46s(wall), 555.29s(cpu)
        *  Thank you very much for using Q-Chem.  Have a nice day.  *
