 Q-Chem 5.4, Q-Chem, Inc., Pleasanton, CA (2021)
 Q-Chem 5.4.0 for Intel X86 EM64T Linux

User input:
--------------------------------------------------------------
$molecule
0 1
C	0.775127	-3.866725	0.000713
C	-0.612565	-3.703963	0.000302
C	-1.066639	-2.357056	-0.000067
H	-1.302900	-4.561092	0.000470
C	-0.000000	-1.440664	-0.000000
S	1.544483	-2.286957	-0.000009
C	-2.521872	-1.978743	-0.000295
H	-3.166949	-2.878678	-0.000221
H	-2.790821	-1.376015	-0.892850
H	-2.791023	-1.375728	0.892005
H	1.375251	-4.783437	0.000945
C	0.000000	0.000000	0.000000
C	0.365003	0.782674	1.099446
C	0.949885	2.036912	0.776721
H	0.209135	0.448431	2.136088
C	1.043159	2.236886	-0.612546
S	0.398297	0.854094	-1.486809
C	1.409609	3.022738	1.814609
H	1.229726	2.636980	2.836676
H	0.877346	3.992870	1.726239
H	2.494910	3.238558	1.726228
H	1.444334	3.097160	-1.161575
$end

$rem
JOBTYPE		SP
EXCHANGE	HF
CORRELATION	pRIMP2
BASIS		cc-pvtz
METHOD		rimp2
AUX_BASIS	rimp2-cc-pvtz
SOLVENT_METHOD	PCM
PURECART	11111
SYMMETRY	false
MEM_TOTAL	110000
SCF_CONVERGENCE = 6
THRESH=10
$end

$solvent
dielectric 4.90
$end
--------------------------------------------------------------

             Standard Nuclear Orientation (Angstroms)
    I     Atom           X                Y                Z
 ----------------------------------------------------------------
    1      C       0.7751270000    -3.8667250000     0.0007130000
    2      C      -0.6125650000    -3.7039630000     0.0003020000
    3      C      -1.0666390000    -2.3570560000    -0.0000670000
    4      H      -1.3029000000    -4.5610920000     0.0004700000
    5      C       0.0000000000    -1.4406640000     0.0000000000
    6      S       1.5444830000    -2.2869570000    -0.0000090000
    7      C      -2.5218720000    -1.9787430000    -0.0002950000
    8      H      -3.1669490000    -2.8786780000    -0.0002210000
    9      H      -2.7908210000    -1.3760150000    -0.8928500000
   10      H      -2.7910230000    -1.3757280000     0.8920050000
   11      H       1.3752510000    -4.7834370000     0.0009450000
   12      C       0.0000000000     0.0000000000     0.0000000000
   13      C       0.3650030000     0.7826740000     1.0994460000
   14      C       0.9498850000     2.0369120000     0.7767210000
   15      H       0.2091350000     0.4484310000     2.1360880000
   16      C       1.0431590000     2.2368860000    -0.6125460000
   17      S       0.3982970000     0.8540940000    -1.4868090000
   18      C       1.4096090000     3.0227380000     1.8146090000
   19      H       1.2297260000     2.6369800000     2.8366760000
   20      H       0.8773460000     3.9928700000     1.7262390000
   21      H       2.4949100000     3.2385580000     1.7262280000
   22      H       1.4443340000     3.0971600000    -1.1615750000
 ----------------------------------------------------------------

   10   -1179.6740583575      5.05e-07  Convergence criterion met
 Total energy in the final basis set =    -1179.6740583575
        RIMP2         total energy =     -1181.6543399611 a.u.

                    Orbital Energies (a.u.)
 --------------------------------------------------------------

 Alpha MOs
 -- Occupied --
-91.9844 -91.9828 -11.2736 -11.2712 -11.2711 -11.2687 -11.2510 -11.2510
-11.2456 -11.2403 -11.2291 -11.2287  -8.9841  -8.9825  -6.6650  -6.6644
 -6.6638  -6.6634  -6.6629  -6.6622  -1.1794  -1.1489  -1.0404  -1.0221
 -0.9971  -0.9531  -0.9128  -0.8918  -0.7998  -0.7528  -0.7317  -0.6933
 -0.6612  -0.6167  -0.5828  -0.5792  -0.5704  -0.5690  -0.5513  -0.5320
 -0.5295  -0.5189  -0.5081  -0.4915  -0.4818  -0.4643  -0.4630  -0.3501
 -0.3346  -0.3118  -0.3097

          Ground-State Mulliken Net Atomic Charges

     Atom                 Charge (a.u.)
  ----------------------------------------
      1 C                    -0.205920
      2 C                    -0.253475
      3 C                     0.061204
      4 H                     0.182542
      5 C                    -0.066130
      6 S                     0.026754
      7 C                    -0.283972
      8 H                     0.106670
      9 H                     0.110514
     10 H                     0.109435
     11 H                     0.204105
     12 C                    -0.009837
     13 C                    -0.239727
     14 C                     0.031784
     15 H                     0.184436
     16 C                    -0.232980
     17 S                     0.027501
     18 C                    -0.269571
     19 H                     0.102804
     20 H                     0.107687
     21 H                     0.107936
     22 H                     0.198240
  ----------------------------------------
  Sum of atomic charges =     0.000000

                    Cartesian Multipole Moments
 -----------------------------------------------------------------
    Charge (ESU x 10^10)
                -0.0000
    Dipole Moment (Debye)
         X      -0.5764      Y       0.3827      Z       1.4811
       Tot       1.6347
    Quadrupole Moments (Debye-Ang)
        XX     -84.2053     XY       6.4150     YY     -71.0150
        XZ       0.4315     YZ       0.8907     ZZ     -86.5801

 Total job time:  559.67s(wall), 556.20s(cpu)
        *  Thank you very much for using Q-Chem.  Have a nice day.  *
