 Q-Chem 5.4, Q-Chem, Inc., Pleasanton, CA (2021)
 Q-Chem 5.4.0 for Intel X86 EM64T Linux

User input:
--------------------------------------------------------------
$molecule
0 1
C	-0.763475	-3.866725	0.133897
C	0.603206	-3.703963	-0.106669
C	1.050446	-2.357056	-0.185154
H	1.283024	-4.561092	-0.226709
C	-0.000000	-1.440664	-0.000000
S	-1.521018	-2.286957	0.268206
C	2.483610	-1.978743	-0.437628
H	3.118875	-2.878678	-0.549717
H	2.903464	-1.376015	0.394664
H	2.593726	-1.375728	-1.363110
H	-1.354522	-4.783437	0.237880
C	0.000000	0.000000	0.000000
C	0.365003	0.782674	1.099446
C	0.949885	2.036912	0.776721
H	0.209135	0.448431	2.136088
C	1.043159	2.236886	-0.612546
S	0.398297	0.854094	-1.486809
C	1.409609	3.022738	1.814609
H	1.229726	2.636980	2.836676
H	0.877346	3.992870	1.726239
H	2.494910	3.238558	1.726228
H	1.444334	3.097160	-1.161575
$end

$rem
JOBTYPE		SP
EXCHANGE	HF
CORRELATION	pRIMP2
BASIS		cc-pvtz
METHOD		rimp2
AUX_BASIS	rimp2-cc-pvtz
SOLVENT_METHOD	PCM
PURECART	11111
SYMMETRY	false
MEM_TOTAL	110000
SCF_CONVERGENCE = 6
THRESH=10
$end

$solvent
dielectric 4.90
$end
--------------------------------------------------------------

             Standard Nuclear Orientation (Angstroms)
    I     Atom           X                Y                Z
 ----------------------------------------------------------------
    1      C      -0.7634750000    -3.8667250000     0.1338970000
    2      C       0.6032060000    -3.7039630000    -0.1066690000
    3      C       1.0504460000    -2.3570560000    -0.1851540000
    4      H       1.2830240000    -4.5610920000    -0.2267090000
    5      C       0.0000000000    -1.4406640000     0.0000000000
    6      S      -1.5210180000    -2.2869570000     0.2682060000
    7      C       2.4836100000    -1.9787430000    -0.4376280000
    8      H       3.1188750000    -2.8786780000    -0.5497170000
    9      H       2.9034640000    -1.3760150000     0.3946640000
   10      H       2.5937260000    -1.3757280000    -1.3631100000
   11      H      -1.3545220000    -4.7834370000     0.2378800000
   12      C       0.0000000000     0.0000000000     0.0000000000
   13      C       0.3650030000     0.7826740000     1.0994460000
   14      C       0.9498850000     2.0369120000     0.7767210000
   15      H       0.2091350000     0.4484310000     2.1360880000
   16      C       1.0431590000     2.2368860000    -0.6125460000
   17      S       0.3982970000     0.8540940000    -1.4868090000
   18      C       1.4096090000     3.0227380000     1.8146090000
   19      H       1.2297260000     2.6369800000     2.8366760000
   20      H       0.8773460000     3.9928700000     1.7262390000
   21      H       2.4949100000     3.2385580000     1.7262280000
   22      H       1.4443340000     3.0971600000    -1.1615750000
 ----------------------------------------------------------------

   10   -1179.6735588247      5.52e-07  Convergence criterion met
 Total energy in the final basis set =    -1179.6735588247
        RIMP2         total energy =     -1181.6556442210 a.u.

                    Orbital Energies (a.u.)
 --------------------------------------------------------------

 Alpha MOs
 -- Occupied --
-91.9851 -91.9818 -11.2741 -11.2729 -11.2696 -11.2694 -11.2516 -11.2515
-11.2468 -11.2409 -11.2296 -11.2277  -8.9847  -8.9816  -6.6655  -6.6650
 -6.6644  -6.6625  -6.6619  -6.6613  -1.1795  -1.1490  -1.0410  -1.0209
 -0.9978  -0.9539  -0.9129  -0.8918  -0.7988  -0.7543  -0.7311  -0.6953
 -0.6606  -0.6166  -0.5813  -0.5795  -0.5727  -0.5695  -0.5512  -0.5312
 -0.5286  -0.5203  -0.5107  -0.4914  -0.4811  -0.4649  -0.4588  -0.3458
 -0.3406  -0.3189  -0.3020

          Ground-State Mulliken Net Atomic Charges

     Atom                 Charge (a.u.)
  ----------------------------------------
      1 C                    -0.216767
      2 C                    -0.250279
      3 C                     0.065255
      4 H                     0.183720
      5 C                    -0.029572
      6 S                     0.023153
      7 C                    -0.282582
      8 H                     0.109341
      9 H                     0.110086
     10 H                     0.111415
     11 H                     0.203119
     12 C                    -0.056932
     13 C                    -0.228737
     14 C                     0.026525
     15 H                     0.186443
     16 C                    -0.230101
     17 S                     0.028686
     18 C                    -0.269813
     19 H                     0.103035
     20 H                     0.108188
     21 H                     0.107394
     22 H                     0.198423
  ----------------------------------------
  Sum of atomic charges =     0.000000

                    Cartesian Multipole Moments
 -----------------------------------------------------------------
    Charge (ESU x 10^10)
                -0.0000
    Dipole Moment (Debye)
         X       2.4284      Y       0.5075      Z       1.2102
       Tot       2.7604
    Quadrupole Moments (Debye-Ang)
        XX     -84.5958     XY       2.1104     YY     -71.3461
        XZ      -0.7260     YZ       1.3131     ZZ     -86.3502

 Total job time:  567.98s(wall), 562.62s(cpu)
        *  Thank you very much for using Q-Chem.  Have a nice day.  *
