 Q-Chem 5.4, Q-Chem, Inc., Pleasanton, CA (2021)
 Q-Chem 5.4.0 for Intel X86 EM64T Linux

User input:
--------------------------------------------------------------
$molecule
0 1
C	-0.763475	-3.866725	0.133897
C	0.603206	-3.703963	-0.106669
C	1.050446	-2.357056	-0.185154
H	1.283024	-4.561092	-0.226709
C	-0.000000	-1.440664	-0.000000
S	-1.521018	-2.286957	0.268206
C	2.483610	-1.978743	-0.437628
H	3.118875	-2.878678	-0.549717
H	2.903464	-1.376015	0.394664
H	2.593726	-1.375728	-1.363110
H	-1.354522	-4.783437	0.237880
C	0.000000	0.000000	0.000000
C	0.555137	0.661535	1.099446
C	1.444710	1.721658	0.776721
H	0.318072	0.379023	2.136088
C	1.586563	1.890676	-0.612546
S	0.605781	0.721904	-1.486809
C	2.143920	2.554907	1.814609
H	1.870325	2.228851	2.836676
H	1.880882	3.629742	1.726239
H	3.248098	2.482476	1.726228
H	2.196723	2.617806	-1.161575
$end

$rem
JOBTYPE		SP
EXCHANGE	HF
CORRELATION	pRIMP2
BASIS		cc-pvtz
METHOD		rimp2
AUX_BASIS	rimp2-cc-pvtz
SOLVENT_METHOD	PCM
PURECART	11111
SYMMETRY	false
MEM_TOTAL	110000
SCF_CONVERGENCE = 6
THRESH=10
$end

$solvent
dielectric 4.90
$end
--------------------------------------------------------------

             Standard Nuclear Orientation (Angstroms)
    I     Atom           X                Y                Z
 ----------------------------------------------------------------
    1      C      -0.7634750000    -3.8667250000     0.1338970000
    2      C       0.6032060000    -3.7039630000    -0.1066690000
    3      C       1.0504460000    -2.3570560000    -0.1851540000
    4      H       1.2830240000    -4.5610920000    -0.2267090000
    5      C       0.0000000000    -1.4406640000     0.0000000000
    6      S      -1.5210180000    -2.2869570000     0.2682060000
    7      C       2.4836100000    -1.9787430000    -0.4376280000
    8      H       3.1188750000    -2.8786780000    -0.5497170000
    9      H       2.9034640000    -1.3760150000     0.3946640000
   10      H       2.5937260000    -1.3757280000    -1.3631100000
   11      H      -1.3545220000    -4.7834370000     0.2378800000
   12      C       0.0000000000     0.0000000000     0.0000000000
   13      C       0.5551370000     0.6615350000     1.0994460000
   14      C       1.4447100000     1.7216580000     0.7767210000
   15      H       0.3180720000     0.3790230000     2.1360880000
   16      C       1.5865630000     1.8906760000    -0.6125460000
   17      S       0.6057810000     0.7219040000    -1.4868090000
   18      C       2.1439200000     2.5549070000     1.8146090000
   19      H       1.8703250000     2.2288510000     2.8366760000
   20      H       1.8808820000     3.6297420000     1.7262390000
   21      H       3.2480980000     2.4824760000     1.7262280000
   22      H       2.1967230000     2.6178060000    -1.1615750000
 ----------------------------------------------------------------

   10   -1179.6544399078      7.34e-07  Convergence criterion met
 Total energy in the final basis set =    -1179.6544399078
        RIMP2         total energy =     -1181.6423565834 a.u.

                    Orbital Energies (a.u.)
 --------------------------------------------------------------

 Alpha MOs
 -- Occupied --
-91.9844 -91.9785 -11.2763 -11.2732 -11.2663 -11.2660 -11.2536 -11.2523
-11.2472 -11.2393 -11.2304 -11.2257  -8.9842  -8.9784  -6.6651  -6.6644
 -6.6639  -6.6593  -6.6587  -6.6581  -1.1823  -1.1477  -1.0426  -1.0187
 -0.9987  -0.9534  -0.9123  -0.8911  -0.7969  -0.7534  -0.7337  -0.6950
 -0.6582  -0.6177  -0.5817  -0.5807  -0.5730  -0.5690  -0.5501  -0.5326
 -0.5269  -0.5215  -0.5120  -0.4899  -0.4732  -0.4655  -0.4540  -0.3488
 -0.3388  -0.3181  -0.2984

          Ground-State Mulliken Net Atomic Charges

     Atom                 Charge (a.u.)
  ----------------------------------------
      1 C                    -0.218885
      2 C                    -0.253490
      3 C                     0.058571
      4 H                     0.183229
      5 C                    -0.018522
      6 S                     0.011342
      7 C                    -0.297264
      8 H                     0.113244
      9 H                     0.110740
     10 H                     0.113809
     11 H                     0.201528
     12 C                    -0.081517
     13 C                    -0.200056
     14 C                     0.020221
     15 H                     0.186768
     16 C                    -0.210209
     17 S                     0.030495
     18 C                    -0.268245
     19 H                     0.103305
     20 H                     0.108628
     21 H                     0.106610
     22 H                     0.199698
  ----------------------------------------
  Sum of atomic charges =     0.000000

                    Cartesian Multipole Moments
 -----------------------------------------------------------------
    Charge (ESU x 10^10)
                -0.0000
    Dipole Moment (Debye)
         X       3.1728      Y       0.7767      Z       1.2572
       Tot       3.5000
    Quadrupole Moments (Debye-Ang)
        XX     -82.0276     XY       3.5520     YY     -74.9166
        XZ      -0.5764     YZ       1.1917     ZZ     -86.0715

 Total job time:  605.86s(wall), 602.06s(cpu)
        *  Thank you very much for using Q-Chem.  Have a nice day.  *
