 Q-Chem 5.4, Q-Chem, Inc., Pleasanton, CA (2021)
 Q-Chem 5.4.0 for Intel X86 EM64T Linux

User input:
--------------------------------------------------------------
$molecule
0 1
C	0.671636	-3.866725	-0.386946
C	-0.530345	-3.703963	0.306544
C	-0.923770	-2.357056	0.533261
H	-1.128109	-4.561092	0.651857
C	0.000000	-1.440664	0.000000
S	1.337557	-2.286957	-0.772250
C	-2.184153	-1.978743	1.260680
H	-2.742769	-2.878678	1.583283
H	-2.863347	-1.376015	0.622180
H	-1.971094	-1.375728	2.168011
H	1.191474	-4.783437	-0.686807
C	0.000000	0.000000	0.000000
C	0.431829	0.747884	1.099446
C	1.123799	1.946373	0.776721
H	0.247423	0.428497	2.136088
C	1.234147	2.137457	-0.612546
S	0.471221	0.816130	-1.486809
C	1.667694	2.888380	1.814609
H	1.454874	2.519768	2.836676
H	1.222009	3.901210	1.726239
H	2.767675	3.008788	1.726228
H	1.708773	2.959493	-1.161575
$end

$rem
JOBTYPE		SP
EXCHANGE	HF
CORRELATION	pRIMP2
BASIS		cc-pvtz
METHOD		rimp2
AUX_BASIS	rimp2-cc-pvtz
SOLVENT_METHOD	PCM
PURECART	11111
SYMMETRY	false
MEM_TOTAL	110000
SCF_CONVERGENCE = 6
THRESH=10
$end

$solvent
dielectric 4.90
$end
--------------------------------------------------------------

             Standard Nuclear Orientation (Angstroms)
    I     Atom           X                Y                Z
 ----------------------------------------------------------------
    1      C       0.6716360000    -3.8667250000    -0.3869460000
    2      C      -0.5303450000    -3.7039630000     0.3065440000
    3      C      -0.9237700000    -2.3570560000     0.5332610000
    4      H      -1.1281090000    -4.5610920000     0.6518570000
    5      C       0.0000000000    -1.4406640000     0.0000000000
    6      S       1.3375570000    -2.2869570000    -0.7722500000
    7      C      -2.1841530000    -1.9787430000     1.2606800000
    8      H      -2.7427690000    -2.8786780000     1.5832830000
    9      H      -2.8633470000    -1.3760150000     0.6221800000
   10      H      -1.9710940000    -1.3757280000     2.1680110000
   11      H       1.1914740000    -4.7834370000    -0.6868070000
   12      C       0.0000000000     0.0000000000     0.0000000000
   13      C       0.4318290000     0.7478840000     1.0994460000
   14      C       1.1237990000     1.9463730000     0.7767210000
   15      H       0.2474230000     0.4284970000     2.1360880000
   16      C       1.2341470000     2.1374570000    -0.6125460000
   17      S       0.4712210000     0.8161300000    -1.4868090000
   18      C       1.6676940000     2.8883800000     1.8146090000
   19      H       1.4548740000     2.5197680000     2.8366760000
   20      H       1.2220090000     3.9012100000     1.7262390000
   21      H       2.7676750000     3.0087880000     1.7262280000
   22      H       1.7087730000     2.9594930000    -1.1615750000
 ----------------------------------------------------------------

   10   -1179.6686972986      5.23e-07  Convergence criterion met
 Total energy in the final basis set =    -1179.6686972986
        RIMP2         total energy =     -1181.6511301626 a.u.

                    Orbital Energies (a.u.)
 --------------------------------------------------------------

 Alpha MOs
 -- Occupied --
-91.9856 -91.9825 -11.2744 -11.2735 -11.2707 -11.2676 -11.2523 -11.2478
-11.2473 -11.2400 -11.2297 -11.2282  -8.9854  -8.9822  -6.6663  -6.6657
 -6.6651  -6.6631  -6.6625  -6.6619  -1.1812  -1.1486  -1.0419  -1.0219
 -0.9966  -0.9548  -0.9114  -0.8925  -0.8008  -0.7509  -0.7333  -0.6948
 -0.6600  -0.6163  -0.5846  -0.5794  -0.5695  -0.5675  -0.5514  -0.5336
 -0.5307  -0.5190  -0.5085  -0.4906  -0.4793  -0.4697  -0.4589  -0.3552
 -0.3385  -0.3296  -0.2854

          Ground-State Mulliken Net Atomic Charges

     Atom                 Charge (a.u.)
  ----------------------------------------
      1 C                    -0.219490
      2 C                    -0.249666
      3 C                     0.042500
      4 H                     0.182247
      5 C                    -0.042299
      6 S                     0.026951
      7 C                    -0.286027
      8 H                     0.107168
      9 H                     0.110110
     10 H                     0.106780
     11 H                     0.203498
     12 C                    -0.032611
     13 C                    -0.196266
     14 C                     0.012043
     15 H                     0.189146
     16 C                    -0.218884
     17 S                     0.017619
     18 C                    -0.269965
     19 H                     0.102561
     20 H                     0.107977
     21 H                     0.107828
     22 H                     0.198778
  ----------------------------------------
  Sum of atomic charges =     0.000000

                    Cartesian Multipole Moments
 -----------------------------------------------------------------
    Charge (ESU x 10^10)
                -0.0000
    Dipole Moment (Debye)
         X      -0.1020      Y       0.6353      Z       2.2189
       Tot       2.3103
    Quadrupole Moments (Debye-Ang)
        XX     -85.1091     XY       6.7525     YY     -72.5023
        XZ      -2.2542     YZ      -0.2786     ZZ     -84.8427

 Total job time:  552.09s(wall), 547.23s(cpu)
        *  Thank you very much for using Q-Chem.  Have a nice day.  *
