 Q-Chem 5.4, Q-Chem, Inc., Pleasanton, CA (2021)
 Q-Chem 5.4.0 for Intel X86 EM64T Linux

User input:
--------------------------------------------------------------
$molecule
0 1
C	0.594240	-3.866725	-0.497696
C	-0.469057	-3.703963	0.393981
C	-0.817136	-2.357056	0.685571
H	-0.997777	-4.561092	0.837848
C	-0.000000	-1.440664	-0.000000
S	1.183137	-2.286957	-0.992782
C	-1.932056	-1.978743	1.620802
H	-2.426166	-2.878678	2.035506
H	-2.711806	-1.376015	1.109943
H	-1.564678	-1.375728	2.477350
H	1.054110	-4.783437	-0.883271
C	0.000000	0.000000	0.000000
C	0.149995	0.850475	1.099446
C	0.390327	2.213354	0.776721
H	0.085947	0.487279	2.136088
C	0.428665	2.430655	-0.612546
S	0.163670	0.928078	-1.486809
C	0.579235	3.284574	1.814609
H	0.505323	2.865404	2.836676
H	-0.185980	4.083890	1.726239
H	1.571698	3.773937	1.726228
H	0.593515	3.365448	-1.161575
$end

$rem
JOBTYPE		SP
EXCHANGE	HF
CORRELATION	pRIMP2
BASIS		cc-pvtz
METHOD		rimp2
AUX_BASIS	rimp2-cc-pvtz
SOLVENT_METHOD	PCM
PURECART	11111
SYMMETRY	false
MEM_TOTAL	110000
SCF_CONVERGENCE = 6
THRESH=10
$end

$solvent
dielectric 4.90
$end
--------------------------------------------------------------

             Standard Nuclear Orientation (Angstroms)
    I     Atom           X                Y                Z
 ----------------------------------------------------------------
    1      C       0.5942400000    -3.8667250000    -0.4976960000
    2      C      -0.4690570000    -3.7039630000     0.3939810000
    3      C      -0.8171360000    -2.3570560000     0.6855710000
    4      H      -0.9977770000    -4.5610920000     0.8378480000
    5      C       0.0000000000    -1.4406640000     0.0000000000
    6      S       1.1831370000    -2.2869570000    -0.9927820000
    7      C      -1.9320560000    -1.9787430000     1.6208020000
    8      H      -2.4261660000    -2.8786780000     2.0355060000
    9      H      -2.7118060000    -1.3760150000     1.1099430000
   10      H      -1.5646780000    -1.3757280000     2.4773500000
   11      H       1.0541100000    -4.7834370000    -0.8832710000
   12      C       0.0000000000     0.0000000000     0.0000000000
   13      C       0.1499950000     0.8504750000     1.0994460000
   14      C       0.3903270000     2.2133540000     0.7767210000
   15      H       0.0859470000     0.4872790000     2.1360880000
   16      C       0.4286650000     2.4306550000    -0.6125460000
   17      S       0.1636700000     0.9280780000    -1.4868090000
   18      C       0.5792350000     3.2845740000     1.8146090000
   19      H       0.5053230000     2.8654040000     2.8366760000
   20      H      -0.1859800000     4.0838900000     1.7262390000
   21      H       1.5716980000     3.7739370000     1.7262280000
   22      H       0.5935150000     3.3654480000    -1.1615750000
 ----------------------------------------------------------------

   10   -1179.6848084081      5.10e-07  Convergence criterion met
 Total energy in the final basis set =    -1179.6848084081
        RIMP2         total energy =     -1181.6636478676 a.u.

                    Orbital Energies (a.u.)
 --------------------------------------------------------------

 Alpha MOs
 -- Occupied --
-91.9863 -91.9851 -11.2807 -11.2755 -11.2714 -11.2647 -11.2525 -11.2518
-11.2425 -11.2421 -11.2296 -11.2293  -8.9858  -8.9848  -6.6667  -6.6662
 -6.6657  -6.6656  -6.6651  -6.6645  -1.1799  -1.1498  -1.0411  -1.0244
 -0.9963  -0.9557  -0.9128  -0.8933  -0.8023  -0.7535  -0.7305  -0.6968
 -0.6621  -0.6154  -0.5852  -0.5801  -0.5699  -0.5662  -0.5523  -0.5351
 -0.5298  -0.5209  -0.5072  -0.4911  -0.4872  -0.4710  -0.4582  -0.3543
 -0.3414  -0.3372  -0.2820

          Ground-State Mulliken Net Atomic Charges

     Atom                 Charge (a.u.)
  ----------------------------------------
      1 C                    -0.214570
      2 C                    -0.248745
      3 C                     0.040633
      4 H                     0.184259
      5 C                    -0.037556
      6 S                     0.020621
      7 C                    -0.285677
      8 H                     0.109338
      9 H                     0.112073
     10 H                     0.107560
     11 H                     0.204857
     12 C                     0.000237
     13 C                    -0.227789
     14 C                     0.016677
     15 H                     0.192264
     16 C                    -0.236707
     17 S                     0.017408
     18 C                    -0.272277
     19 H                     0.102171
     20 H                     0.108159
     21 H                     0.108728
     22 H                     0.198338
  ----------------------------------------
  Sum of atomic charges =     0.000000

                    Cartesian Multipole Moments
 -----------------------------------------------------------------
    Charge (ESU x 10^10)
                -0.0000
    Dipole Moment (Debye)
         X      -0.7990      Y       0.2874      Z       2.4076
       Tot       2.5529
    Quadrupole Moments (Debye-Ang)
        XX     -88.5758     XY       3.4583     YY     -69.0935
        XZ      -3.0301     YZ      -0.3762     ZZ     -83.9772

 Total job time:  577.69s(wall), 574.09s(cpu)
        *  Thank you very much for using Q-Chem.  Have a nice day.  *
