 Q-Chem 5.4, Q-Chem, Inc., Pleasanton, CA (2021)
 Q-Chem 5.4.0 for Intel X86 EM64T Linux

User input:
--------------------------------------------------------------
$molecule
0 1
C	0.670748	-3.808105	0.775127
C	0.642889	-3.647744	-0.612565
C	0.409365	-2.321236	-1.066639
H	0.791563	-4.491881	-1.302900
C	0.250169	-1.418777	0.000000
S	0.397135	-2.252211	1.544483
C	0.343896	-1.948630	-2.521872
H	0.500095	-2.834906	-3.166949
H	1.118228	-1.200068	-2.790821
H	-0.639561	-1.509723	-2.791023
H	0.829705	-4.710930	1.375251
C	0.000000	0.000000	0.000000
C	0.295399	0.811508	1.099446
C	0.768742	2.111949	0.776721
H	0.169256	0.464952	2.136088
C	0.844232	2.319291	-0.612546
S	0.322342	0.885558	-1.486809
C	1.140796	3.134091	1.814609
H	0.995218	2.734123	2.836676
H	0.526006	4.054142	1.726239
H	2.203157	3.443680	1.726228
H	1.168902	3.211257	-1.161575
$end

$rem
JOBTYPE		SP
EXCHANGE	HF
CORRELATION	pRIMP2
BASIS		cc-pvtz
METHOD		rimp2
AUX_BASIS	rimp2-cc-pvtz
SOLVENT_METHOD	PCM
PURECART	11111
SYMMETRY	false
MEM_TOTAL	110000
SCF_CONVERGENCE = 6
THRESH=10
$end

$solvent
dielectric 4.90
$end
--------------------------------------------------------------

             Standard Nuclear Orientation (Angstroms)
    I     Atom           X                Y                Z
 ----------------------------------------------------------------
    1      C       0.6707480000    -3.8081050000     0.7751270000
    2      C       0.6428890000    -3.6477440000    -0.6125650000
    3      C       0.4093650000    -2.3212360000    -1.0666390000
    4      H       0.7915630000    -4.4918810000    -1.3029000000
    5      C       0.2501690000    -1.4187770000     0.0000000000
    6      S       0.3971350000    -2.2522110000     1.5444830000
    7      C       0.3438960000    -1.9486300000    -2.5218720000
    8      H       0.5000950000    -2.8349060000    -3.1669490000
    9      H       1.1182280000    -1.2000680000    -2.7908210000
   10      H      -0.6395610000    -1.5097230000    -2.7910230000
   11      H       0.8297050000    -4.7109300000     1.3752510000
   12      C       0.0000000000     0.0000000000     0.0000000000
   13      C       0.2953990000     0.8115080000     1.0994460000
   14      C       0.7687420000     2.1119490000     0.7767210000
   15      H       0.1692560000     0.4649520000     2.1360880000
   16      C       0.8442320000     2.3192910000    -0.6125460000
   17      S       0.3223420000     0.8855580000    -1.4868090000
   18      C       1.1407960000     3.1340910000     1.8146090000
   19      H       0.9952180000     2.7341230000     2.8366760000
   20      H       0.5260060000     4.0541420000     1.7262390000
   21      H       2.2031570000     3.4436800000     1.7262280000
   22      H       1.1689020000     3.2112570000    -1.1615750000
 ----------------------------------------------------------------

   10   -1179.6662015726      5.63e-07  Convergence criterion met
 Total energy in the final basis set =    -1179.6662015726
        RIMP2         total energy =     -1181.6522262452 a.u.

                    Orbital Energies (a.u.)
 --------------------------------------------------------------

 Alpha MOs
 -- Occupied --
-91.9844 -91.9816 -11.2791 -11.2782 -11.2686 -11.2681 -11.2531 -11.2488
-11.2453 -11.2419 -11.2295 -11.2280  -8.9845  -8.9817  -6.6653  -6.6647
 -6.6641  -6.6627  -6.6621  -6.6615  -1.1834  -1.1491  -1.0434  -1.0246
 -0.9991  -0.9516  -0.9140  -0.8953  -0.7985  -0.7657  -0.7207  -0.6952
 -0.6611  -0.6163  -0.5847  -0.5828  -0.5780  -0.5698  -0.5524  -0.5340
 -0.5229  -0.5215  -0.5123  -0.4959  -0.4840  -0.4658  -0.4482  -0.3711
 -0.3424  -0.3398  -0.2657

          Ground-State Mulliken Net Atomic Charges

     Atom                 Charge (a.u.)
  ----------------------------------------
      1 C                    -0.218485
      2 C                    -0.250627
      3 C                     0.048159
      4 H                     0.184119
      5 C                    -0.027886
      6 S                    -0.002432
      7 C                    -0.317968
      8 H                     0.114956
      9 H                     0.115334
     10 H                     0.115471
     11 H                     0.205538
     12 C                     0.034646
     13 C                    -0.254707
     14 C                     0.038480
     15 H                     0.178444
     16 C                    -0.247451
     17 S                     0.033095
     18 C                    -0.268024
     19 H                     0.103023
     20 H                     0.108607
     21 H                     0.108274
     22 H                     0.199433
  ----------------------------------------
  Sum of atomic charges =     0.000000

                    Cartesian Multipole Moments
 -----------------------------------------------------------------
    Charge (ESU x 10^10)
                -0.0000
    Dipole Moment (Debye)
         X       1.0233      Y       0.6478      Z      -0.1635
       Tot       1.2221
    Quadrupole Moments (Debye-Ang)
        XX     -90.9779     XY       1.5530     YY     -71.2968
        XZ      -0.1836     YZ       3.2501     ZZ     -79.8522

 Total job time:  569.74s(wall), 565.34s(cpu)
        *  Thank you very much for using Q-Chem.  Have a nice day.  *
