 Q-Chem 5.4, Q-Chem, Inc., Pleasanton, CA (2021)
 Q-Chem 5.4.0 for Intel X86 EM64T Linux

User input:
--------------------------------------------------------------
$molecule
0 1
C	0.728138	-3.866725	0.265779
C	-0.575726	-3.703963	-0.209225
C	-1.002290	-2.357056	-0.364875
H	-1.224486	-4.561092	-0.445176
C	-0.000000	-1.440664	-0.000000
S	1.451343	-2.286957	0.528236
C	-2.369683	-1.978743	-0.862808
H	-2.975883	-2.878678	-1.083368
H	-2.317142	-1.376015	-1.793522
H	-2.927787	-1.375728	-0.116375
H	1.291990	-4.783437	0.471251
C	0.000000	0.000000	0.000000
C	0.075300	0.860311	1.099446
C	0.195935	2.238951	0.776721
H	0.043151	0.492916	2.136088
C	0.215188	2.458766	-0.612546
S	0.082160	0.938811	-1.486809
C	0.290762	3.322559	1.814609
H	0.253664	2.898542	2.836676
H	-0.541206	4.052140	1.726239
H	1.236797	3.896558	1.726228
H	0.297938	3.404370	-1.161575
$end

$rem
JOBTYPE		SP
EXCHANGE	HF
CORRELATION	pRIMP2
BASIS		cc-pvtz
METHOD		rimp2
AUX_BASIS	rimp2-cc-pvtz
SOLVENT_METHOD	PCM
PURECART	11111
SYMMETRY	false
MEM_TOTAL	110000
SCF_CONVERGENCE = 6
THRESH=10
$end

$solvent
dielectric 4.90
$end
--------------------------------------------------------------

             Standard Nuclear Orientation (Angstroms)
    I     Atom           X                Y                Z
 ----------------------------------------------------------------
    1      C       0.7281380000    -3.8667250000     0.2657790000
    2      C      -0.5757260000    -3.7039630000    -0.2092250000
    3      C      -1.0022900000    -2.3570560000    -0.3648750000
    4      H      -1.2244860000    -4.5610920000    -0.4451760000
    5      C       0.0000000000    -1.4406640000     0.0000000000
    6      S       1.4513430000    -2.2869570000     0.5282360000
    7      C      -2.3696830000    -1.9787430000    -0.8628080000
    8      H      -2.9758830000    -2.8786780000    -1.0833680000
    9      H      -2.3171420000    -1.3760150000    -1.7935220000
   10      H      -2.9277870000    -1.3757280000    -0.1163750000
   11      H       1.2919900000    -4.7834370000     0.4712510000
   12      C       0.0000000000     0.0000000000     0.0000000000
   13      C       0.0753000000     0.8603110000     1.0994460000
   14      C       0.1959350000     2.2389510000     0.7767210000
   15      H       0.0431510000     0.4929160000     2.1360880000
   16      C       0.2151880000     2.4587660000    -0.6125460000
   17      S       0.0821600000     0.9388110000    -1.4868090000
   18      C       0.2907620000     3.3225590000     1.8146090000
   19      H       0.2536640000     2.8985420000     2.8366760000
   20      H      -0.5412060000     4.0521400000     1.7262390000
   21      H       1.2367970000     3.8965580000     1.7262280000
   22      H       0.2979380000     3.4043700000    -1.1615750000
 ----------------------------------------------------------------

   10   -1179.6859568413      5.05e-07  Convergence criterion met
 Total energy in the final basis set =    -1179.6859568413
        RIMP2         total energy =     -1181.6638239165 a.u.

                    Orbital Energies (a.u.)
 --------------------------------------------------------------

 Alpha MOs
 -- Occupied --
-91.9853 -91.9851 -11.2792 -11.2731 -11.2724 -11.2647 -11.2537 -11.2509
-11.2423 -11.2420 -11.2293 -11.2289  -8.9847  -8.9846  -6.6656  -6.6655
 -6.6651  -6.6650  -6.6645  -6.6644  -1.1787  -1.1496  -1.0401  -1.0231
 -0.9978  -0.9534  -0.9140  -0.8922  -0.8006  -0.7567  -0.7278  -0.6944
 -0.6625  -0.6163  -0.5826  -0.5787  -0.5724  -0.5694  -0.5520  -0.5326
 -0.5279  -0.5196  -0.5077  -0.4930  -0.4882  -0.4656  -0.4611  -0.3452
 -0.3404  -0.3290  -0.2960

          Ground-State Mulliken Net Atomic Charges

     Atom                 Charge (a.u.)
  ----------------------------------------
      1 C                    -0.212087
      2 C                    -0.248903
      3 C                     0.038639
      4 H                     0.184270
      5 C                    -0.041998
      6 S                     0.025320
      7 C                    -0.282177
      8 H                     0.107564
      9 H                     0.109618
     10 H                     0.110955
     11 H                     0.204515
     12 C                     0.001673
     13 C                    -0.240764
     14 C                     0.022455
     15 H                     0.187665
     16 C                    -0.238540
     17 S                     0.026105
     18 C                    -0.271210
     19 H                     0.102783
     20 H                     0.107863
     21 H                     0.108373
     22 H                     0.197882
  ----------------------------------------
  Sum of atomic charges =     0.000000

                    Cartesian Multipole Moments
 -----------------------------------------------------------------
    Charge (ESU x 10^10)
                -0.0000
    Dipole Moment (Debye)
         X      -1.2411      Y       0.2314      Z       0.9172
       Tot       1.5605
    Quadrupole Moments (Debye-Ang)
        XX     -86.8233     XY       2.9410     YY     -68.7854
        XZ       2.2500     YZ       1.7648     ZZ     -85.9407

 Total job time:  550.51s(wall), 545.95s(cpu)
        *  Thank you very much for using Q-Chem.  Have a nice day.  *
