 Q-Chem 5.4, Q-Chem, Inc., Pleasanton, CA (2021)
 Q-Chem 5.4.0 for Intel X86 EM64T Linux

User input:
--------------------------------------------------------------
$molecule
0 1
C	0.728625	-3.866725	-0.264439
C	-0.575519	-3.703963	0.209794
C	-1.002336	-2.357056	0.364749
H	-1.224165	-4.561092	0.446060
C	-0.000000	-1.440664	-0.000000
S	1.451336	-2.286957	-0.528253
C	-2.369885	-1.978743	0.862253
H	-2.976034	-2.878678	1.082953
H	-2.927887	-1.376015	0.115513
H	-2.317620	-1.375728	1.792797
H	1.292636	-4.783437	-0.469476
C	0.000000	0.000000	0.000000
C	0.365003	0.782674	1.099446
C	0.949885	2.036912	0.776721
H	0.209135	0.448431	2.136088
C	1.043159	2.236886	-0.612546
S	0.398297	0.854094	-1.486809
C	1.409609	3.022738	1.814609
H	1.229726	2.636980	2.836676
H	0.877346	3.992870	1.726239
H	2.494910	3.238558	1.726228
H	1.444334	3.097160	-1.161575
$end

$rem
JOBTYPE		SP
EXCHANGE	HF
CORRELATION	pRIMP2
BASIS		cc-pvtz
METHOD		rimp2
AUX_BASIS	rimp2-cc-pvtz
SOLVENT_METHOD	PCM
PURECART	11111
SYMMETRY	false
MEM_TOTAL	110000
SCF_CONVERGENCE = 6
THRESH=10
$end

$solvent
dielectric 4.90
$end
--------------------------------------------------------------

             Standard Nuclear Orientation (Angstroms)
    I     Atom           X                Y                Z
 ----------------------------------------------------------------
    1      C       0.7286250000    -3.8667250000    -0.2644390000
    2      C      -0.5755190000    -3.7039630000     0.2097940000
    3      C      -1.0023360000    -2.3570560000     0.3647490000
    4      H      -1.2241650000    -4.5610920000     0.4460600000
    5      C       0.0000000000    -1.4406640000     0.0000000000
    6      S       1.4513360000    -2.2869570000    -0.5282530000
    7      C      -2.3698850000    -1.9787430000     0.8622530000
    8      H      -2.9760340000    -2.8786780000     1.0829530000
    9      H      -2.9278870000    -1.3760150000     0.1155130000
   10      H      -2.3176200000    -1.3757280000     1.7927970000
   11      H       1.2926360000    -4.7834370000    -0.4694760000
   12      C       0.0000000000     0.0000000000     0.0000000000
   13      C       0.3650030000     0.7826740000     1.0994460000
   14      C       0.9498850000     2.0369120000     0.7767210000
   15      H       0.2091350000     0.4484310000     2.1360880000
   16      C       1.0431590000     2.2368860000    -0.6125460000
   17      S       0.3982970000     0.8540940000    -1.4868090000
   18      C       1.4096090000     3.0227380000     1.8146090000
   19      H       1.2297260000     2.6369800000     2.8366760000
   20      H       0.8773460000     3.9928700000     1.7262390000
   21      H       2.4949100000     3.2385580000     1.7262280000
   22      H       1.4443340000     3.0971600000    -1.1615750000
 ----------------------------------------------------------------

   10   -1179.6738649800      5.08e-07  Convergence criterion met
 Total energy in the final basis set =    -1179.6738649800
        RIMP2         total energy =     -1181.6545514207 a.u.

                    Orbital Energies (a.u.)
 --------------------------------------------------------------

 Alpha MOs
 -- Occupied --
-91.9853 -91.9830 -11.2750 -11.2726 -11.2699 -11.2687 -11.2515 -11.2499
-11.2459 -11.2404 -11.2293 -11.2287  -8.9849  -8.9827  -6.6658  -6.6652
 -6.6647  -6.6636  -6.6630  -6.6624  -1.1799  -1.1489  -1.0410  -1.0223
 -0.9966  -0.9543  -0.9121  -0.8923  -0.8006  -0.7513  -0.7329  -0.6944
 -0.6609  -0.6164  -0.5835  -0.5792  -0.5697  -0.5684  -0.5515  -0.5321
 -0.5308  -0.5192  -0.5083  -0.4910  -0.4815  -0.4675  -0.4609  -0.3523
 -0.3364  -0.3256  -0.2937

          Ground-State Mulliken Net Atomic Charges

     Atom                 Charge (a.u.)
  ----------------------------------------
      1 C                    -0.211076
      2 C                    -0.251553
      3 C                     0.054162
      4 H                     0.182631
      5 C                    -0.057825
      6 S                     0.027365
      7 C                    -0.284176
      8 H                     0.106981
      9 H                     0.110631
     10 H                     0.107782
     11 H                     0.203997
     12 C                    -0.022539
     13 C                    -0.212788
     14 C                     0.018254
     15 H                     0.186122
     16 C                    -0.227329
     17 S                     0.023015
     18 C                    -0.270290
     19 H                     0.102661
     20 H                     0.107840
     21 H                     0.107942
     22 H                     0.198195
  ----------------------------------------
  Sum of atomic charges =     0.000000

                    Cartesian Multipole Moments
 -----------------------------------------------------------------
    Charge (ESU x 10^10)
                -0.0000
    Dipole Moment (Debye)
         X      -0.4630      Y       0.4701      Z       1.9882
       Tot       2.0948
    Quadrupole Moments (Debye-Ang)
        XX     -85.0187     XY       6.2674     YY     -71.2576
        XZ      -1.6368     YZ       0.1272     ZZ     -85.7849

 Total job time:  581.05s(wall), 578.00s(cpu)
        *  Thank you very much for using Q-Chem.  Have a nice day.  *
