 Q-Chem 5.4, Q-Chem, Inc., Pleasanton, CA (2021)
 Q-Chem 5.4.0 for Intel X86 EM64T Linux

User input:
--------------------------------------------------------------
$molecule
0 1
C	-0.728625	-3.866725	0.264439
C	0.575519	-3.703963	-0.209794
C	1.002336	-2.357056	-0.364749
H	1.224165	-4.561092	-0.446060
C	0.000000	-1.440664	0.000000
S	-1.451336	-2.286957	0.528253
C	2.369885	-1.978743	-0.862253
H	2.976034	-2.878678	-1.082953
H	2.927887	-1.376015	-0.115513
H	2.317620	-1.375728	-1.792797
H	-1.292636	-4.783437	0.469476
C	0.000000	0.000000	0.000000
C	0.295399	0.811508	1.099446
C	0.768742	2.111949	0.776721
H	0.169256	0.464952	2.136088
C	0.844232	2.319291	-0.612546
S	0.322342	0.885558	-1.486809
C	1.140796	3.134091	1.814609
H	0.995218	2.734123	2.836676
H	0.526006	4.054142	1.726239
H	2.203157	3.443680	1.726228
H	1.168902	3.211257	-1.161575
$end

$rem
JOBTYPE		SP
EXCHANGE	HF
CORRELATION	pRIMP2
BASIS		cc-pvtz
METHOD		rimp2
AUX_BASIS	rimp2-cc-pvtz
SOLVENT_METHOD	PCM
PURECART	11111
SYMMETRY	false
MEM_TOTAL	110000
SCF_CONVERGENCE = 6
THRESH=10
$end

$solvent
dielectric 4.90
$end
--------------------------------------------------------------

             Standard Nuclear Orientation (Angstroms)
    I     Atom           X                Y                Z
 ----------------------------------------------------------------
    1      C      -0.7286250000    -3.8667250000     0.2644390000
    2      C       0.5755190000    -3.7039630000    -0.2097940000
    3      C       1.0023360000    -2.3570560000    -0.3647490000
    4      H       1.2241650000    -4.5610920000    -0.4460600000
    5      C       0.0000000000    -1.4406640000     0.0000000000
    6      S      -1.4513360000    -2.2869570000     0.5282530000
    7      C       2.3698850000    -1.9787430000    -0.8622530000
    8      H       2.9760340000    -2.8786780000    -1.0829530000
    9      H       2.9278870000    -1.3760150000    -0.1155130000
   10      H       2.3176200000    -1.3757280000    -1.7927970000
   11      H      -1.2926360000    -4.7834370000     0.4694760000
   12      C       0.0000000000     0.0000000000     0.0000000000
   13      C       0.2953990000     0.8115080000     1.0994460000
   14      C       0.7687420000     2.1119490000     0.7767210000
   15      H       0.1692560000     0.4649520000     2.1360880000
   16      C       0.8442320000     2.3192910000    -0.6125460000
   17      S       0.3223420000     0.8855580000    -1.4868090000
   18      C       1.1407960000     3.1340910000     1.8146090000
   19      H       0.9952180000     2.7341230000     2.8366760000
   20      H       0.5260060000     4.0541420000     1.7262390000
   21      H       2.2031570000     3.4436800000     1.7262280000
   22      H       1.1689020000     3.2112570000    -1.1615750000
 ----------------------------------------------------------------

   10   -1179.6776553191      5.19e-07  Convergence criterion met
 Total energy in the final basis set =    -1179.6776553191
        RIMP2         total energy =     -1181.6586116109 a.u.

                    Orbital Energies (a.u.)
 --------------------------------------------------------------

 Alpha MOs
 -- Occupied --
-91.9852 -91.9830 -11.2765 -11.2739 -11.2702 -11.2677 -11.2519 -11.2515
-11.2453 -11.2414 -11.2294 -11.2276  -8.9848  -8.9827  -6.6656  -6.6651
 -6.6645  -6.6636  -6.6630  -6.6624  -1.1794  -1.1493  -1.0409  -1.0215
 -0.9980  -0.9538  -0.9131  -0.8921  -0.7993  -0.7562  -0.7291  -0.6952
 -0.6611  -0.6165  -0.5817  -0.5788  -0.5732  -0.5697  -0.5515  -0.5316
 -0.5284  -0.5199  -0.5104  -0.4923  -0.4830  -0.4653  -0.4588  -0.3466
 -0.3416  -0.3264  -0.2947

          Ground-State Mulliken Net Atomic Charges

     Atom                 Charge (a.u.)
  ----------------------------------------
      1 C                    -0.217141
      2 C                    -0.249970
      3 C                     0.056985
      4 H                     0.183963
      5 C                    -0.028380
      6 S                     0.024042
      7 C                    -0.283622
      8 H                     0.108781
      9 H                     0.111676
     10 H                     0.111805
     11 H                     0.203660
     12 C                    -0.045784
     13 C                    -0.226963
     14 C                     0.021742
     15 H                     0.187098
     16 C                    -0.231151
     17 S                     0.026632
     18 C                    -0.270302
     19 H                     0.102966
     20 H                     0.108249
     21 H                     0.107632
     22 H                     0.198082
  ----------------------------------------
  Sum of atomic charges =     0.000000

                    Cartesian Multipole Moments
 -----------------------------------------------------------------
    Charge (ESU x 10^10)
                -0.0000
    Dipole Moment (Debye)
         X       2.1461      Y       0.4517      Z       0.9271
       Tot       2.3810
    Quadrupole Moments (Debye-Ang)
        XX     -85.8073     XY       1.5484     YY     -70.5683
        XZ      -1.7873     YZ       1.7141     ZZ     -85.8073

 Total job time:  557.46s(wall), 554.50s(cpu)
        *  Thank you very much for using Q-Chem.  Have a nice day.  *
