 Q-Chem 5.4, Q-Chem, Inc., Pleasanton, CA (2021)
 Q-Chem 5.4.0 for Intel X86 EM64T Linux

User input:
--------------------------------------------------------------
$molecule
0 1
C	-0.594240	-3.866725	0.497696
C	0.469057	-3.703963	-0.393981
C	0.817136	-2.357056	-0.685571
H	0.997777	-4.561092	-0.837848
C	-0.000000	-1.440664	-0.000000
S	-1.183137	-2.286957	0.992782
C	1.932056	-1.978743	-1.620802
H	2.426166	-2.878678	-2.035506
H	2.711806	-1.376015	-1.109943
H	1.564678	-1.375728	-2.477350
H	-1.054110	-4.783437	0.883271
C	0.000000	0.000000	0.000000
C	0.149995	0.850475	1.099446
C	0.390327	2.213354	0.776721
H	0.085947	0.487279	2.136088
C	0.428665	2.430655	-0.612546
S	0.163670	0.928078	-1.486809
C	0.579235	3.284574	1.814609
H	0.505323	2.865404	2.836676
H	-0.185980	4.083890	1.726239
H	1.571698	3.773937	1.726228
H	0.593515	3.365448	-1.161575
$end

$rem
JOBTYPE		SP
EXCHANGE	HF
CORRELATION	pRIMP2
BASIS		cc-pvtz
METHOD		rimp2
AUX_BASIS	rimp2-cc-pvtz
SOLVENT_METHOD	PCM
PURECART	11111
SYMMETRY	false
MEM_TOTAL	110000
SCF_CONVERGENCE = 6
THRESH=10
$end

$solvent
dielectric 4.90
$end
--------------------------------------------------------------

             Standard Nuclear Orientation (Angstroms)
    I     Atom           X                Y                Z
 ----------------------------------------------------------------
    1      C      -0.5942400000    -3.8667250000     0.4976960000
    2      C       0.4690570000    -3.7039630000    -0.3939810000
    3      C       0.8171360000    -2.3570560000    -0.6855710000
    4      H       0.9977770000    -4.5610920000    -0.8378480000
    5      C       0.0000000000    -1.4406640000     0.0000000000
    6      S      -1.1831370000    -2.2869570000     0.9927820000
    7      C       1.9320560000    -1.9787430000    -1.6208020000
    8      H       2.4261660000    -2.8786780000    -2.0355060000
    9      H       2.7118060000    -1.3760150000    -1.1099430000
   10      H       1.5646780000    -1.3757280000    -2.4773500000
   11      H      -1.0541100000    -4.7834370000     0.8832710000
   12      C       0.0000000000     0.0000000000     0.0000000000
   13      C       0.1499950000     0.8504750000     1.0994460000
   14      C       0.3903270000     2.2133540000     0.7767210000
   15      H       0.0859470000     0.4872790000     2.1360880000
   16      C       0.4286650000     2.4306550000    -0.6125460000
   17      S       0.1636700000     0.9280780000    -1.4868090000
   18      C       0.5792350000     3.2845740000     1.8146090000
   19      H       0.5053230000     2.8654040000     2.8366760000
   20      H      -0.1859800000     4.0838900000     1.7262390000
   21      H       1.5716980000     3.7739370000     1.7262280000
   22      H       0.5935150000     3.3654480000    -1.1615750000
 ----------------------------------------------------------------

   10   -1179.6838474419      5.02e-07  Convergence criterion met
 Total energy in the final basis set =    -1179.6838474419
        RIMP2         total energy =     -1181.6634825479 a.u.

                    Orbital Energies (a.u.)
 --------------------------------------------------------------

 Alpha MOs
 -- Occupied --
-91.9851 -91.9847 -11.2806 -11.2756 -11.2714 -11.2649 -11.2527 -11.2514
-11.2425 -11.2425 -11.2290 -11.2282  -8.9847  -8.9844  -6.6656  -6.6653
 -6.6651  -6.6648  -6.6645  -6.6641  -1.1797  -1.1497  -1.0411  -1.0229
 -0.9984  -0.9533  -0.9139  -0.8930  -0.8001  -0.7600  -0.7249  -0.6951
 -0.6621  -0.6162  -0.5827  -0.5778  -0.5753  -0.5697  -0.5520  -0.5329
 -0.5271  -0.5195  -0.5099  -0.4942  -0.4865  -0.4667  -0.4573  -0.3533
 -0.3423  -0.3365  -0.2820

          Ground-State Mulliken Net Atomic Charges

     Atom                 Charge (a.u.)
  ----------------------------------------
      1 C                    -0.216806
      2 C                    -0.248922
      3 C                     0.036203
      4 H                     0.184505
      5 C                    -0.026385
      6 S                     0.022423
      7 C                    -0.293572
      8 H                     0.109799
      9 H                     0.115774
     10 H                     0.112675
     11 H                     0.204675
     12 C                    -0.001379
     13 C                    -0.237113
     14 C                     0.019031
     15 H                     0.187759
     16 C                    -0.236647
     17 S                     0.021455
     18 C                    -0.270815
     19 H                     0.102857
     20 H                     0.108274
     21 H                     0.108010
     22 H                     0.198197
  ----------------------------------------
  Sum of atomic charges =     0.000000

                    Cartesian Multipole Moments
 -----------------------------------------------------------------
    Charge (ESU x 10^10)
                -0.0000
    Dipole Moment (Debye)
         X       1.5050      Y       0.2982      Z       0.4303
       Tot       1.5934
    Quadrupole Moments (Debye-Ang)
        XX     -88.6007     XY       0.2725     YY     -69.3276
        XZ      -3.1079     YZ       2.3753     ZZ     -83.8834

 Total job time:  563.70s(wall), 560.49s(cpu)
        *  Thank you very much for using Q-Chem.  Have a nice day.  *
