 Q-Chem 5.4, Q-Chem, Inc., Pleasanton, CA (2021)
 Q-Chem 5.4.0 for Intel X86 EM64T Linux

User input:
--------------------------------------------------------------
$molecule
0 1
C	-0.386946	-3.866725	-0.671636
C	0.306544	-3.703963	0.530345
C	0.533261	-2.357056	0.923770
H	0.651857	-4.561092	1.128109
C	-0.000000	-1.440664	-0.000000
S	-0.772250	-2.286957	-1.337557
C	1.260680	-1.978743	2.184153
H	1.583283	-2.878678	2.742769
H	0.622180	-1.376015	2.863347
H	2.168011	-1.375728	1.971094
H	-0.686807	-4.783437	-1.191474
C	0.000000	0.000000	0.000000
C	0.075300	0.860311	1.099446
C	0.195935	2.238951	0.776721
H	0.043151	0.492916	2.136088
C	0.215188	2.458766	-0.612546
S	0.082160	0.938811	-1.486809
C	0.290762	3.322559	1.814609
H	0.253664	2.898542	2.836676
H	-0.541206	4.052140	1.726239
H	1.236797	3.896558	1.726228
H	0.297938	3.404370	-1.161575
$end

$rem
JOBTYPE		SP
EXCHANGE	HF
CORRELATION	pRIMP2
BASIS		cc-pvtz
METHOD		rimp2
AUX_BASIS	rimp2-cc-pvtz
SOLVENT_METHOD	PCM
PURECART	11111
SYMMETRY	false
MEM_TOTAL	110000
SCF_CONVERGENCE = 6
THRESH=10
$end

$solvent
dielectric 4.90
$end
--------------------------------------------------------------

             Standard Nuclear Orientation (Angstroms)
    I     Atom           X                Y                Z
 ----------------------------------------------------------------
    1      C      -0.3869460000    -3.8667250000    -0.6716360000
    2      C       0.3065440000    -3.7039630000     0.5303450000
    3      C       0.5332610000    -2.3570560000     0.9237700000
    4      H       0.6518570000    -4.5610920000     1.1281090000
    5      C       0.0000000000    -1.4406640000     0.0000000000
    6      S      -0.7722500000    -2.2869570000    -1.3375570000
    7      C       1.2606800000    -1.9787430000     2.1841530000
    8      H       1.5832830000    -2.8786780000     2.7427690000
    9      H       0.6221800000    -1.3760150000     2.8633470000
   10      H       2.1680110000    -1.3757280000     1.9710940000
   11      H      -0.6868070000    -4.7834370000    -1.1914740000
   12      C       0.0000000000     0.0000000000     0.0000000000
   13      C       0.0753000000     0.8603110000     1.0994460000
   14      C       0.1959350000     2.2389510000     0.7767210000
   15      H       0.0431510000     0.4929160000     2.1360880000
   16      C       0.2151880000     2.4587660000    -0.6125460000
   17      S       0.0821600000     0.9388110000    -1.4868090000
   18      C       0.2907620000     3.3225590000     1.8146090000
   19      H       0.2536640000     2.8985420000     2.8366760000
   20      H      -0.5412060000     4.0521400000     1.7262390000
   21      H       1.2367970000     3.8965580000     1.7262280000
   22      H       0.2979380000     3.4043700000    -1.1615750000
 ----------------------------------------------------------------

   10   -1179.6858549212      5.25e-07  Convergence criterion met
 Total energy in the final basis set =    -1179.6858549212
        RIMP2         total energy =     -1181.6654061785 a.u.

                    Orbital Energies (a.u.)
 --------------------------------------------------------------

 Alpha MOs
 -- Occupied --
-91.9860 -91.9852 -11.2827 -11.2775 -11.2728 -11.2639 -11.2542 -11.2521
-11.2438 -11.2404 -11.2308 -11.2294  -8.9857  -8.9851  -6.6666  -6.6661
 -6.6660  -6.6654  -6.6654  -6.6648  -1.1809  -1.1503  -1.0416  -1.0265
 -0.9962  -0.9562  -0.9140  -0.8941  -0.8029  -0.7560  -0.7284  -0.6995
 -0.6624  -0.6147  -0.5888  -0.5814  -0.5703  -0.5641  -0.5521  -0.5384
 -0.5297  -0.5228  -0.5057  -0.4913  -0.4882  -0.4743  -0.4546  -0.3632
 -0.3449  -0.3394  -0.2736

          Ground-State Mulliken Net Atomic Charges

     Atom                 Charge (a.u.)
  ----------------------------------------
      1 C                    -0.214293
      2 C                    -0.249920
      3 C                     0.060457
      4 H                     0.184220
      5 C                    -0.039756
      6 S                     0.014310
      7 C                    -0.302345
      8 H                     0.114795
      9 H                     0.106764
     10 H                     0.117562
     11 H                     0.206331
     12 C                     0.020206
     13 C                    -0.254733
     14 C                     0.029768
     15 H                     0.193610
     16 C                    -0.251609
     17 S                     0.018166
     18 C                    -0.271731
     19 H                     0.101863
     20 H                     0.108864
     21 H                     0.108736
     22 H                     0.198733
  ----------------------------------------
  Sum of atomic charges =     0.000000

                    Cartesian Multipole Moments
 -----------------------------------------------------------------
    Charge (ESU x 10^10)
                -0.0000
    Dipole Moment (Debye)
         X       0.9202      Y       0.1463      Z       2.7455
       Tot       2.8993
    Quadrupole Moments (Debye-Ang)
        XX     -91.0092     XY      -0.0969     YY     -68.3935
        XZ       2.9768     YZ      -0.8272     ZZ     -81.7801

 Total job time:  560.12s(wall), 555.58s(cpu)
        *  Thank you very much for using Q-Chem.  Have a nice day.  *
