 Q-Chem 5.4, Q-Chem, Inc., Pleasanton, CA (2021)
 Q-Chem 5.4.0 for Intel X86 EM64T Linux

User input:
--------------------------------------------------------------
$molecule
0 1
C	-0.497696	-3.866725	-0.594240
C	0.393981	-3.703963	0.469057
C	0.685571	-2.357056	0.817136
H	0.837848	-4.561092	0.997777
C	-0.000000	-1.440664	-0.000000
S	-0.992782	-2.286957	-1.183137
C	1.620802	-1.978743	1.932056
H	2.035506	-2.878678	2.426166
H	1.109943	-1.376015	2.711806
H	2.477350	-1.375728	1.564678
H	-0.883271	-4.783437	-1.054110
C	0.000000	0.000000	0.000000
C	0.365003	0.782674	1.099446
C	0.949885	2.036912	0.776721
H	0.209135	0.448431	2.136088
C	1.043159	2.236886	-0.612546
S	0.398297	0.854094	-1.486809
C	1.409609	3.022738	1.814609
H	1.229726	2.636980	2.836676
H	0.877346	3.992870	1.726239
H	2.494910	3.238558	1.726228
H	1.444334	3.097160	-1.161575
$end

$rem
JOBTYPE		SP
EXCHANGE	HF
CORRELATION	pRIMP2
BASIS		cc-pvtz
METHOD		rimp2
AUX_BASIS	rimp2-cc-pvtz
SOLVENT_METHOD	PCM
PURECART	11111
SYMMETRY	false
MEM_TOTAL	110000
SCF_CONVERGENCE = 6
THRESH=10
$end

$solvent
dielectric 4.90
$end
--------------------------------------------------------------

             Standard Nuclear Orientation (Angstroms)
    I     Atom           X                Y                Z
 ----------------------------------------------------------------
    1      C      -0.4976960000    -3.8667250000    -0.5942400000
    2      C       0.3939810000    -3.7039630000     0.4690570000
    3      C       0.6855710000    -2.3570560000     0.8171360000
    4      H       0.8378480000    -4.5610920000     0.9977770000
    5      C       0.0000000000    -1.4406640000     0.0000000000
    6      S      -0.9927820000    -2.2869570000    -1.1831370000
    7      C       1.6208020000    -1.9787430000     1.9320560000
    8      H       2.0355060000    -2.8786780000     2.4261660000
    9      H       1.1099430000    -1.3760150000     2.7118060000
   10      H       2.4773500000    -1.3757280000     1.5646780000
   11      H      -0.8832710000    -4.7834370000    -1.0541100000
   12      C       0.0000000000     0.0000000000     0.0000000000
   13      C       0.3650030000     0.7826740000     1.0994460000
   14      C       0.9498850000     2.0369120000     0.7767210000
   15      H       0.2091350000     0.4484310000     2.1360880000
   16      C       1.0431590000     2.2368860000    -0.6125460000
   17      S       0.3982970000     0.8540940000    -1.4868090000
   18      C       1.4096090000     3.0227380000     1.8146090000
   19      H       1.2297260000     2.6369800000     2.8366760000
   20      H       0.8773460000     3.9928700000     1.7262390000
   21      H       2.4949100000     3.2385580000     1.7262280000
   22      H       1.4443340000     3.0971600000    -1.1615750000
 ----------------------------------------------------------------

   10   -1179.6739653854      5.29e-07  Convergence criterion met
 Total energy in the final basis set =    -1179.6739653854
        RIMP2         total energy =     -1181.6566462938 a.u.

                    Orbital Energies (a.u.)
 --------------------------------------------------------------

 Alpha MOs
 -- Occupied --
-91.9849 -91.9822 -11.2767 -11.2757 -11.2710 -11.2683 -11.2523 -11.2522
-11.2441 -11.2423 -11.2298 -11.2292  -8.9847  -8.9822  -6.6656  -6.6650
 -6.6644  -6.6631  -6.6626  -6.6620  -1.1812  -1.1495  -1.0418  -1.0247
 -0.9962  -0.9552  -0.9134  -0.8933  -0.8005  -0.7546  -0.7304  -0.6991
 -0.6605  -0.6152  -0.5884  -0.5807  -0.5710  -0.5635  -0.5511  -0.5376
 -0.5283  -0.5230  -0.5072  -0.4912  -0.4822  -0.4700  -0.4561  -0.3554
 -0.3432  -0.3401  -0.2766

          Ground-State Mulliken Net Atomic Charges

     Atom                 Charge (a.u.)
  ----------------------------------------
      1 C                    -0.212798
      2 C                    -0.249873
      3 C                     0.059474
      4 H                     0.184101
      5 C                    -0.029911
      6 S                     0.013431
      7 C                    -0.296255
      8 H                     0.114701
      9 H                     0.105550
     10 H                     0.117105
     11 H                     0.205188
     12 C                    -0.002957
     13 C                    -0.288169
     14 C                     0.052582
     15 H                     0.192908
     16 C                    -0.243900
     17 S                     0.029992
     18 C                    -0.269406
     19 H                     0.102278
     20 H                     0.108927
     21 H                     0.108365
     22 H                     0.198665
  ----------------------------------------
  Sum of atomic charges =     0.000000

                    Cartesian Multipole Moments
 -----------------------------------------------------------------
    Charge (ESU x 10^10)
                -0.0000
    Dipole Moment (Debye)
         X       1.8916      Y       0.3671      Z       2.6823
       Tot       3.3027
    Quadrupole Moments (Debye-Ang)
        XX     -88.0237     XY       2.9335     YY     -70.8446
        XZ       3.5894     YZ      -0.7755     ZZ     -82.8987

 Total job time:  564.26s(wall), 560.21s(cpu)
        *  Thank you very much for using Q-Chem.  Have a nice day.  *
