 Q-Chem 5.4, Q-Chem, Inc., Pleasanton, CA (2021)
 Q-Chem 5.4.0 for Intel X86 EM64T Linux

User input:
--------------------------------------------------------------
$molecule
0 1
C	0.775127	-3.866725	0.000713
C	-0.612565	-3.703963	0.000302
C	-1.066639	-2.357056	-0.000067
H	-1.302900	-4.561092	0.000470
C	-0.000000	-1.440664	-0.000000
S	1.544483	-2.286957	-0.000009
C	-2.521872	-1.978743	-0.000295
H	-3.166949	-2.878678	-0.000221
H	-2.790821	-1.376015	-0.892850
H	-2.791023	-1.375728	0.892005
H	1.375251	-4.783437	0.000945
C	0.000000	0.000000	0.000000
C	0.555137	0.661535	1.099446
C	1.444710	1.721658	0.776721
H	0.318072	0.379023	2.136088
C	1.586563	1.890676	-0.612546
S	0.605781	0.721904	-1.486809
C	2.143920	2.554907	1.814609
H	1.870325	2.228851	2.836676
H	1.880882	3.629742	1.726239
H	3.248098	2.482476	1.726228
H	2.196723	2.617806	-1.161575
$end

$rem
JOBTYPE		SP
EXCHANGE	HF
CORRELATION	pRIMP2
BASIS		cc-pvtz
METHOD		rimp2
AUX_BASIS	rimp2-cc-pvtz
SOLVENT_METHOD	PCM
PURECART	11111
SYMMETRY	false
MEM_TOTAL	110000
SCF_CONVERGENCE = 6
THRESH=10
$end

$solvent
dielectric 4.90
$end
--------------------------------------------------------------

             Standard Nuclear Orientation (Angstroms)
    I     Atom           X                Y                Z
 ----------------------------------------------------------------
    1      C       0.7751270000    -3.8667250000     0.0007130000
    2      C      -0.6125650000    -3.7039630000     0.0003020000
    3      C      -1.0666390000    -2.3570560000    -0.0000670000
    4      H      -1.3029000000    -4.5610920000     0.0004700000
    5      C       0.0000000000    -1.4406640000     0.0000000000
    6      S       1.5444830000    -2.2869570000    -0.0000090000
    7      C      -2.5218720000    -1.9787430000    -0.0002950000
    8      H      -3.1669490000    -2.8786780000    -0.0002210000
    9      H      -2.7908210000    -1.3760150000    -0.8928500000
   10      H      -2.7910230000    -1.3757280000     0.8920050000
   11      H       1.3752510000    -4.7834370000     0.0009450000
   12      C       0.0000000000     0.0000000000     0.0000000000
   13      C       0.5551370000     0.6615350000     1.0994460000
   14      C       1.4447100000     1.7216580000     0.7767210000
   15      H       0.3180720000     0.3790230000     2.1360880000
   16      C       1.5865630000     1.8906760000    -0.6125460000
   17      S       0.6057810000     0.7219040000    -1.4868090000
   18      C       2.1439200000     2.5549070000     1.8146090000
   19      H       1.8703250000     2.2288510000     2.8366760000
   20      H       1.8808820000     3.6297420000     1.7262390000
   21      H       3.2480980000     2.4824760000     1.7262280000
   22      H       2.1967230000     2.6178060000    -1.1615750000
 ----------------------------------------------------------------

   10   -1179.6553621258      5.65e-07  Convergence criterion met
 Total energy in the final basis set =    -1179.6553621258
        RIMP2         total energy =     -1181.6401679022 a.u.

                    Orbital Energies (a.u.)
 --------------------------------------------------------------

 Alpha MOs
 -- Occupied --
-91.9835 -91.9796 -11.2758 -11.2701 -11.2686 -11.2655 -11.2522 -11.2512
-11.2466 -11.2383 -11.2297 -11.2274  -8.9834  -8.9795  -6.6643  -6.6636
 -6.6631  -6.6604  -6.6598  -6.6592  -1.1821  -1.1476  -1.0419  -1.0202
 -0.9978  -0.9520  -0.9121  -0.8913  -0.7984  -0.7515  -0.7344  -0.6915
 -0.6592  -0.6181  -0.5833  -0.5795  -0.5699  -0.5689  -0.5502  -0.5328
 -0.5297  -0.5176  -0.5087  -0.4906  -0.4730  -0.4647  -0.4619  -0.3544
 -0.3316  -0.3128  -0.3039

          Ground-State Mulliken Net Atomic Charges

     Atom                 Charge (a.u.)
  ----------------------------------------
      1 C                    -0.210587
      2 C                    -0.254130
      3 C                     0.059881
      4 H                     0.181385
      5 C                    -0.066943
      6 S                     0.021142
      7 C                    -0.284055
      8 H                     0.106652
      9 H                     0.109993
     10 H                     0.108633
     11 H                     0.203328
     12 C                    -0.038949
     13 C                    -0.217118
     14 C                     0.028893
     15 H                     0.183957
     16 C                    -0.214082
     17 S                     0.032120
     18 C                    -0.267597
     19 H                     0.102908
     20 H                     0.107681
     21 H                     0.107394
     22 H                     0.199496
  ----------------------------------------
  Sum of atomic charges =     0.000000

                    Cartesian Multipole Moments
 -----------------------------------------------------------------
    Charge (ESU x 10^10)
                -0.0000
    Dipole Moment (Debye)
         X       0.1569      Y       0.5932      Z       1.5266
       Tot       1.6453
    Quadrupole Moments (Debye-Ang)
        XX     -81.5603     XY       7.9627     YY     -74.2873
        XZ       0.5458     YZ       0.7248     ZZ     -86.3075

 Total job time:  565.08s(wall), 560.40s(cpu)
        *  Thank you very much for using Q-Chem.  Have a nice day.  *
