 Q-Chem 5.4, Q-Chem, Inc., Pleasanton, CA (2021)
 Q-Chem 5.4.0 for Intel X86 EM64T Linux

User input:
--------------------------------------------------------------
$molecule
0 1
C	0.728625	-3.866725	-0.264439
C	-0.575519	-3.703963	0.209794
C	-1.002336	-2.357056	0.364749
H	-1.224165	-4.561092	0.446060
C	-0.000000	-1.440664	-0.000000
S	1.451336	-2.286957	-0.528253
C	-2.369885	-1.978743	0.862253
H	-2.976034	-2.878678	1.082953
H	-2.927887	-1.376015	0.115513
H	-2.317620	-1.375728	1.792797
H	1.292636	-4.783437	-0.469476
C	0.000000	0.000000	0.000000
C	0.075300	0.860311	1.099446
C	0.195935	2.238951	0.776721
H	0.043151	0.492916	2.136088
C	0.215188	2.458766	-0.612546
S	0.082160	0.938811	-1.486809
C	0.290762	3.322559	1.814609
H	0.253664	2.898542	2.836676
H	-0.541206	4.052140	1.726239
H	1.236797	3.896558	1.726228
H	0.297938	3.404370	-1.161575
$end

$rem
JOBTYPE		SP
EXCHANGE	HF
CORRELATION	pRIMP2
BASIS		cc-pvtz
METHOD		rimp2
AUX_BASIS	rimp2-cc-pvtz
SOLVENT_METHOD	PCM
PURECART	11111
SYMMETRY	false
MEM_TOTAL	110000
SCF_CONVERGENCE = 6
THRESH=10
$end

$solvent
dielectric 4.90
$end
--------------------------------------------------------------

             Standard Nuclear Orientation (Angstroms)
    I     Atom           X                Y                Z
 ----------------------------------------------------------------
    1      C       0.7286250000    -3.8667250000    -0.2644390000
    2      C      -0.5755190000    -3.7039630000     0.2097940000
    3      C      -1.0023360000    -2.3570560000     0.3647490000
    4      H      -1.2241650000    -4.5610920000     0.4460600000
    5      C       0.0000000000    -1.4406640000     0.0000000000
    6      S       1.4513360000    -2.2869570000    -0.5282530000
    7      C      -2.3698850000    -1.9787430000     0.8622530000
    8      H      -2.9760340000    -2.8786780000     1.0829530000
    9      H      -2.9278870000    -1.3760150000     0.1155130000
   10      H      -2.3176200000    -1.3757280000     1.7927970000
   11      H       1.2926360000    -4.7834370000    -0.4694760000
   12      C       0.0000000000     0.0000000000     0.0000000000
   13      C       0.0753000000     0.8603110000     1.0994460000
   14      C       0.1959350000     2.2389510000     0.7767210000
   15      H       0.0431510000     0.4929160000     2.1360880000
   16      C       0.2151880000     2.4587660000    -0.6125460000
   17      S       0.0821600000     0.9388110000    -1.4868090000
   18      C       0.2907620000     3.3225590000     1.8146090000
   19      H       0.2536640000     2.8985420000     2.8366760000
   20      H      -0.5412060000     4.0521400000     1.7262390000
   21      H       1.2367970000     3.8965580000     1.7262280000
   22      H       0.2979380000     3.4043700000    -1.1615750000
 ----------------------------------------------------------------

   10   -1179.6854480189      5.11e-07  Convergence criterion met
 Total energy in the final basis set =    -1179.6854480189
        RIMP2         total energy =     -1181.6633751243 a.u.

                    Orbital Energies (a.u.)
 --------------------------------------------------------------

 Alpha MOs
 -- Occupied --
-91.9857 -91.9846 -11.2792 -11.2734 -11.2724 -11.2646 -11.2539 -11.2510
-11.2421 -11.2420 -11.2295 -11.2290  -8.9852  -8.9843  -6.6660  -6.6655
 -6.6651  -6.6649  -6.6646  -6.6640  -1.1787  -1.1496  -1.0402  -1.0236
 -0.9966  -0.9548  -0.9130  -0.8926  -0.8014  -0.7528  -0.7313  -0.6956
 -0.6623  -0.6159  -0.5832  -0.5795  -0.5702  -0.5681  -0.5522  -0.5321
 -0.5301  -0.5203  -0.5075  -0.4914  -0.4879  -0.4666  -0.4615  -0.3481
 -0.3381  -0.3287  -0.2958

          Ground-State Mulliken Net Atomic Charges

     Atom                 Charge (a.u.)
  ----------------------------------------
      1 C                    -0.211282
      2 C                    -0.248783
      3 C                     0.046887
      4 H                     0.184298
      5 C                    -0.050106
      6 S                     0.024267
      7 C                    -0.281675
      8 H                     0.108178
      9 H                     0.111414
     10 H                     0.108745
     11 H                     0.204628
     12 C                    -0.007273
     13 C                    -0.227050
     14 C                     0.017447
     15 H                     0.187796
     16 C                    -0.238158
     17 S                     0.025691
     18 C                    -0.271638
     19 H                     0.102506
     20 H                     0.107826
     21 H                     0.108482
     22 H                     0.197800
  ----------------------------------------
  Sum of atomic charges =     0.000000

                    Cartesian Multipole Moments
 -----------------------------------------------------------------
    Charge (ESU x 10^10)
                -0.0000
    Dipole Moment (Debye)
         X      -1.2471      Y       0.2459      Z       1.9679
       Tot       2.3427
    Quadrupole Moments (Debye-Ang)
        XX     -86.8404     XY       2.9218     YY     -68.7932
        XZ      -2.0068     YZ       0.2747     ZZ     -85.9572

 Total job time:  551.74s(wall), 546.76s(cpu)
        *  Thank you very much for using Q-Chem.  Have a nice day.  *
