 Q-Chem 5.4, Q-Chem, Inc., Pleasanton, CA (2021)
 Q-Chem 5.4.0 for Intel X86 EM64T Linux

User input:
--------------------------------------------------------------
$molecule
0 1
C	-0.497696	-3.866725	-0.594240
C	0.393981	-3.703963	0.469057
C	0.685571	-2.357056	0.817136
H	0.837848	-4.561092	0.997777
C	0.000000	-1.440664	0.000000
S	-0.992782	-2.286957	-1.183137
C	1.620802	-1.978743	1.932056
H	2.035506	-2.878678	2.426166
H	1.109943	-1.376015	2.711806
H	2.477350	-1.375728	1.564678
H	-0.883271	-4.783437	-1.054110
C	0.000000	0.000000	0.000000
C	0.000033	0.863600	1.099446
C	0.000052	2.247508	0.776721
H	0.000026	0.494801	2.136088
C	0.000074	2.468165	-0.612546
S	0.000024	0.942399	-1.486809
C	0.000075	3.335257	1.814609
H	0.000074	2.909620	2.836676
H	-0.892314	3.989552	1.726239
H	0.892483	3.989525	1.726228
H	0.000094	3.417382	-1.161575
$end

$rem
JOBTYPE		SP
EXCHANGE	HF
CORRELATION	pRIMP2
BASIS		cc-pvtz
METHOD		rimp2
AUX_BASIS	rimp2-cc-pvtz
SOLVENT_METHOD	PCM
PURECART	11111
SYMMETRY	false
MEM_TOTAL	110000
SCF_CONVERGENCE = 6
THRESH=10
$end

$solvent
dielectric 4.90
$end
--------------------------------------------------------------

             Standard Nuclear Orientation (Angstroms)
    I     Atom           X                Y                Z
 ----------------------------------------------------------------
    1      C      -0.4976960000    -3.8667250000    -0.5942400000
    2      C       0.3939810000    -3.7039630000     0.4690570000
    3      C       0.6855710000    -2.3570560000     0.8171360000
    4      H       0.8378480000    -4.5610920000     0.9977770000
    5      C       0.0000000000    -1.4406640000     0.0000000000
    6      S      -0.9927820000    -2.2869570000    -1.1831370000
    7      C       1.6208020000    -1.9787430000     1.9320560000
    8      H       2.0355060000    -2.8786780000     2.4261660000
    9      H       1.1099430000    -1.3760150000     2.7118060000
   10      H       2.4773500000    -1.3757280000     1.5646780000
   11      H      -0.8832710000    -4.7834370000    -1.0541100000
   12      C       0.0000000000     0.0000000000     0.0000000000
   13      C       0.0000330000     0.8636000000     1.0994460000
   14      C       0.0000520000     2.2475080000     0.7767210000
   15      H       0.0000260000     0.4948010000     2.1360880000
   16      C       0.0000740000     2.4681650000    -0.6125460000
   17      S       0.0000240000     0.9423990000    -1.4868090000
   18      C       0.0000750000     3.3352570000     1.8146090000
   19      H       0.0000740000     2.9096200000     2.8366760000
   20      H      -0.8923140000     3.9895520000     1.7262390000
   21      H       0.8924830000     3.9895250000     1.7262280000
   22      H       0.0000940000     3.4173820000    -1.1615750000
 ----------------------------------------------------------------

   10   -1179.6867789385      5.24e-07  Convergence criterion met
 Total energy in the final basis set =    -1179.6867789385
        RIMP2         total energy =     -1181.6656647233 a.u.

                    Orbital Energies (a.u.)
 --------------------------------------------------------------

 Alpha MOs
 -- Occupied --
-91.9862 -91.9853 -11.2821 -11.2765 -11.2725 -11.2639 -11.2539 -11.2520
-11.2433 -11.2408 -11.2302 -11.2293  -8.9858  -8.9851  -6.6667  -6.6662
 -6.6660  -6.6656  -6.6655  -6.6648  -1.1803  -1.1501  -1.0413  -1.0256
 -0.9963  -0.9560  -0.9134  -0.8937  -0.8027  -0.7549  -0.7293  -0.6982
 -0.6624  -0.6151  -0.5869  -0.5808  -0.5702  -0.5649  -0.5523  -0.5368
 -0.5297  -0.5220  -0.5064  -0.4910  -0.4885  -0.4725  -0.4566  -0.3582
 -0.3430  -0.3396  -0.2775

          Ground-State Mulliken Net Atomic Charges

     Atom                 Charge (a.u.)
  ----------------------------------------
      1 C                    -0.215174
      2 C                    -0.248523
      3 C                     0.046440
      4 H                     0.184508
      5 C                    -0.035692
      6 S                     0.016927
      7 C                    -0.291827
      8 H                     0.112260
      9 H                     0.107064
     10 H                     0.114744
     11 H                     0.205552
     12 C                     0.010905
     13 C                    -0.240969
     14 C                     0.021533
     15 H                     0.192979
     16 C                    -0.245033
     17 S                     0.018521
     18 C                    -0.272206
     19 H                     0.102064
     20 H                     0.108932
     21 H                     0.108404
     22 H                     0.198592
  ----------------------------------------
  Sum of atomic charges =     0.000000

                    Cartesian Multipole Moments
 -----------------------------------------------------------------
    Charge (ESU x 10^10)
                -0.0000
    Dipole Moment (Debye)
         X       0.9657      Y       0.1852      Z       2.5923
       Tot       2.7725
    Quadrupole Moments (Debye-Ang)
        XX     -90.0281     XY      -1.3322     YY     -68.4505
        XZ       3.2495     YZ      -0.5988     ZZ     -82.8637

 Total job time:  585.58s(wall), 582.94s(cpu)
        *  Thank you very much for using Q-Chem.  Have a nice day.  *
