 Q-Chem 5.4, Q-Chem, Inc., Pleasanton, CA (2021)
 Q-Chem 5.4.0 for Intel X86 EM64T Linux

User input:
--------------------------------------------------------------
$molecule
0 1
C	0.728138	-3.866725	0.265779
C	-0.575726	-3.703963	-0.209225
C	-1.002290	-2.357056	-0.364875
H	-1.224486	-4.561092	-0.445176
C	-0.000000	-1.440664	-0.000000
S	1.451343	-2.286957	0.528236
C	-2.369683	-1.978743	-0.862808
H	-2.975883	-2.878678	-1.083368
H	-2.317142	-1.376015	-1.793522
H	-2.927787	-1.375728	-0.116375
H	1.291990	-4.783437	0.471251
C	0.000000	0.000000	0.000000
C	0.365003	0.782674	1.099446
C	0.949885	2.036912	0.776721
H	0.209135	0.448431	2.136088
C	1.043159	2.236886	-0.612546
S	0.398297	0.854094	-1.486809
C	1.409609	3.022738	1.814609
H	1.229726	2.636980	2.836676
H	0.877346	3.992870	1.726239
H	2.494910	3.238558	1.726228
H	1.444334	3.097160	-1.161575
$end

$rem
JOBTYPE		SP
EXCHANGE	HF
CORRELATION	pRIMP2
BASIS		cc-pvtz
METHOD		rimp2
AUX_BASIS	rimp2-cc-pvtz
SOLVENT_METHOD	PCM
PURECART	11111
SYMMETRY	false
MEM_TOTAL	110000
SCF_CONVERGENCE = 6
THRESH=10
$end

$solvent
dielectric 4.90
$end
--------------------------------------------------------------

             Standard Nuclear Orientation (Angstroms)
    I     Atom           X                Y                Z
 ----------------------------------------------------------------
    1      C       0.7281380000    -3.8667250000     0.2657790000
    2      C      -0.5757260000    -3.7039630000    -0.2092250000
    3      C      -1.0022900000    -2.3570560000    -0.3648750000
    4      H      -1.2244860000    -4.5610920000    -0.4451760000
    5      C       0.0000000000    -1.4406640000     0.0000000000
    6      S       1.4513430000    -2.2869570000     0.5282360000
    7      C      -2.3696830000    -1.9787430000    -0.8628080000
    8      H      -2.9758830000    -2.8786780000    -1.0833680000
    9      H      -2.3171420000    -1.3760150000    -1.7935220000
   10      H      -2.9277870000    -1.3757280000    -0.1163750000
   11      H       1.2919900000    -4.7834370000     0.4712510000
   12      C       0.0000000000     0.0000000000     0.0000000000
   13      C       0.3650030000     0.7826740000     1.0994460000
   14      C       0.9498850000     2.0369120000     0.7767210000
   15      H       0.2091350000     0.4484310000     2.1360880000
   16      C       1.0431590000     2.2368860000    -0.6125460000
   17      S       0.3982970000     0.8540940000    -1.4868090000
   18      C       1.4096090000     3.0227380000     1.8146090000
   19      H       1.2297260000     2.6369800000     2.8366760000
   20      H       0.8773460000     3.9928700000     1.7262390000
   21      H       2.4949100000     3.2385580000     1.7262280000
   22      H       1.4443340000     3.0971600000    -1.1615750000
 ----------------------------------------------------------------

   10   -1179.6753983812      5.04e-07  Convergence criterion met
 Total energy in the final basis set =    -1179.6753983812
        RIMP2         total energy =     -1181.6558035089 a.u.

                    Orbital Energies (a.u.)
 --------------------------------------------------------------

 Alpha MOs
 -- Occupied --
-91.9844 -91.9837 -11.2744 -11.2717 -11.2709 -11.2686 -11.2513 -11.2507
-11.2451 -11.2407 -11.2291 -11.2288  -8.9841  -8.9833  -6.6649  -6.6644
 -6.6642  -6.6638  -6.6636  -6.6630  -1.1797  -1.1490  -1.0406  -1.0222
 -0.9979  -0.9522  -0.9137  -0.8918  -0.7995  -0.7561  -0.7288  -0.6927
 -0.6614  -0.6168  -0.5827  -0.5792  -0.5717  -0.5693  -0.5513  -0.5331
 -0.5277  -0.5187  -0.5080  -0.4927  -0.4828  -0.4654  -0.4614  -0.3472
 -0.3367  -0.3291  -0.2948

          Ground-State Mulliken Net Atomic Charges

     Atom                 Charge (a.u.)
  ----------------------------------------
      1 C                    -0.209541
      2 C                    -0.252115
      3 C                     0.049209
      4 H                     0.182868
      5 C                    -0.046645
      6 S                     0.026798
      7 C                    -0.284464
      8 H                     0.107097
      9 H                     0.109080
     10 H                     0.110779
     11 H                     0.204207
     12 C                     0.006043
     13 C                    -0.279692
     14 C                     0.047416
     15 H                     0.187988
     16 C                    -0.235925
     17 S                     0.028743
     18 C                    -0.269063
     19 H                     0.102925
     20 H                     0.107738
     21 H                     0.108234
     22 H                     0.198320
  ----------------------------------------
  Sum of atomic charges =     0.000000

                    Cartesian Multipole Moments
 -----------------------------------------------------------------
    Charge (ESU x 10^10)
                -0.0000
    Dipole Moment (Debye)
         X      -0.4900      Y       0.3568      Z       0.9568
       Tot       1.1326
    Quadrupole Moments (Debye-Ang)
        XX     -84.9478     XY       6.2904     YY     -70.9297
        XZ       2.5349     YZ       1.6439     ZZ     -85.8381

 Total job time:  582.27s(wall), 578.44s(cpu)
        *  Thank you very much for using Q-Chem.  Have a nice day.  *
