 Q-Chem 5.4, Q-Chem, Inc., Pleasanton, CA (2021)
 Q-Chem 5.4.0 for Intel X86 EM64T Linux

User input:
--------------------------------------------------------------
$molecule
0 1
C	0.671636	-3.866725	-0.386946
C	-0.530345	-3.703963	0.306544
C	-0.923770	-2.357056	0.533261
H	-1.128109	-4.561092	0.651857
C	-0.000000	-1.440664	-0.000000
S	1.337557	-2.286957	-0.772250
C	-2.184153	-1.978743	1.260680
H	-2.742769	-2.878678	1.583283
H	-2.863347	-1.376015	0.622180
H	-1.971094	-1.375728	2.168011
H	1.191474	-4.783437	-0.686807
C	0.000000	0.000000	0.000000
C	0.075300	0.860311	1.099446
C	0.195935	2.238951	0.776721
H	0.043151	0.492916	2.136088
C	0.215188	2.458766	-0.612546
S	0.082160	0.938811	-1.486809
C	0.290762	3.322559	1.814609
H	0.253664	2.898542	2.836676
H	-0.541206	4.052140	1.726239
H	1.236797	3.896558	1.726228
H	0.297938	3.404370	-1.161575
$end

$rem
JOBTYPE		SP
EXCHANGE	HF
CORRELATION	pRIMP2
BASIS		cc-pvtz
METHOD		rimp2
AUX_BASIS	rimp2-cc-pvtz
SOLVENT_METHOD	PCM
PURECART	11111
SYMMETRY	false
MEM_TOTAL	110000
SCF_CONVERGENCE = 6
THRESH=10
$end

$solvent
dielectric 4.90
$end
--------------------------------------------------------------

             Standard Nuclear Orientation (Angstroms)
    I     Atom           X                Y                Z
 ----------------------------------------------------------------
    1      C       0.6716360000    -3.8667250000    -0.3869460000
    2      C      -0.5303450000    -3.7039630000     0.3065440000
    3      C      -0.9237700000    -2.3570560000     0.5332610000
    4      H      -1.1281090000    -4.5610920000     0.6518570000
    5      C       0.0000000000    -1.4406640000     0.0000000000
    6      S       1.3375570000    -2.2869570000    -0.7722500000
    7      C      -2.1841530000    -1.9787430000     1.2606800000
    8      H      -2.7427690000    -2.8786780000     1.5832830000
    9      H      -2.8633470000    -1.3760150000     0.6221800000
   10      H      -1.9710940000    -1.3757280000     2.1680110000
   11      H       1.1914740000    -4.7834370000    -0.6868070000
   12      C       0.0000000000     0.0000000000     0.0000000000
   13      C       0.0753000000     0.8603110000     1.0994460000
   14      C       0.1959350000     2.2389510000     0.7767210000
   15      H       0.0431510000     0.4929160000     2.1360880000
   16      C       0.2151880000     2.4587660000    -0.6125460000
   17      S       0.0821600000     0.9388110000    -1.4868090000
   18      C       0.2907620000     3.3225590000     1.8146090000
   19      H       0.2536640000     2.8985420000     2.8366760000
   20      H      -0.5412060000     4.0521400000     1.7262390000
   21      H       1.2367970000     3.8965580000     1.7262280000
   22      H       0.2979380000     3.4043700000    -1.1615750000
 ----------------------------------------------------------------

   10   -1179.6859071944      5.14e-07  Convergence criterion met
 Total energy in the final basis set =    -1179.6859071944
        RIMP2         total energy =     -1181.6640683790 a.u.

                    Orbital Energies (a.u.)
 --------------------------------------------------------------

 Alpha MOs
 -- Occupied --
-91.9860 -91.9849 -11.2800 -11.2743 -11.2722 -11.2644 -11.2536 -11.2513
-11.2423 -11.2418 -11.2296 -11.2291  -8.9855  -8.9846  -6.6663  -6.6658
 -6.6654  -6.6652  -6.6649  -6.6643  -1.1792  -1.1498  -1.0405  -1.0240
 -0.9965  -0.9552  -0.9129  -0.8929  -0.8018  -0.7531  -0.7310  -0.6962
 -0.6623  -0.6157  -0.5840  -0.5798  -0.5700  -0.5672  -0.5523  -0.5335
 -0.5298  -0.5207  -0.5073  -0.4912  -0.4880  -0.4685  -0.4601  -0.3496
 -0.3397  -0.3347  -0.2886

          Ground-State Mulliken Net Atomic Charges

     Atom                 Charge (a.u.)
  ----------------------------------------
      1 C                    -0.212743
      2 C                    -0.248559
      3 C                     0.043666
      4 H                     0.184387
      5 C                    -0.043622
      6 S                     0.022495
      7 C                    -0.282388
      8 H                     0.108820
      9 H                     0.111921
     10 H                     0.108273
     11 H                     0.204791
     12 C                    -0.004121
     13 C                    -0.230272
     14 C                     0.017689
     15 H                     0.190347
     16 C                    -0.238742
     17 S                     0.023072
     18 C                    -0.271933
     19 H                     0.102363
     20 H                     0.107946
     21 H                     0.108630
     22 H                     0.197981
  ----------------------------------------
  Sum of atomic charges =     0.000000

                    Cartesian Multipole Moments
 -----------------------------------------------------------------
    Charge (ESU x 10^10)
                -0.0000
    Dipole Moment (Debye)
         X      -1.1332      Y       0.2445      Z       2.2035
       Tot       2.4898
    Quadrupole Moments (Debye-Ang)
        XX     -87.7332     XY       2.7468     YY     -68.7741
        XZ      -2.7403     YZ      -0.0589     ZZ     -85.0780

 Total job time:  553.36s(wall), 548.25s(cpu)
        *  Thank you very much for using Q-Chem.  Have a nice day.  *
