 Q-Chem 5.4, Q-Chem, Inc., Pleasanton, CA (2021)
 Q-Chem 5.4.0 for Intel X86 EM64T Linux

User input:
--------------------------------------------------------------
$molecule
0 1
C	0.498788	-3.866725	-0.593324
C	-0.393517	-3.703963	0.469446
C	-0.685674	-2.357056	0.817050
H	-0.837128	-4.561092	0.998381
C	-0.000000	-1.440664	-0.000000
S	0.992768	-2.286957	-1.183149
C	-1.621254	-1.978743	1.931676
H	-2.035845	-2.878678	2.425882
H	-2.477868	-1.376015	1.563980
H	-1.110719	-1.375728	2.711417
H	0.884718	-4.783437	-1.052896
C	0.000000	0.000000	0.000000
C	0.555137	0.661535	1.099446
C	1.444710	1.721658	0.776721
H	0.318072	0.379023	2.136088
C	1.586563	1.890676	-0.612546
S	0.605781	0.721904	-1.486809
C	2.143920	2.554907	1.814609
H	1.870325	2.228851	2.836676
H	1.880882	3.629742	1.726239
H	3.248098	2.482476	1.726228
H	2.196723	2.617806	-1.161575
$end

$rem
JOBTYPE		SP
EXCHANGE	HF
CORRELATION	pRIMP2
BASIS		cc-pvtz
METHOD		rimp2
AUX_BASIS	rimp2-cc-pvtz
SOLVENT_METHOD	PCM
PURECART	11111
SYMMETRY	false
MEM_TOTAL	110000
SCF_CONVERGENCE = 6
THRESH=10
$end

$solvent
dielectric 4.90
$end
--------------------------------------------------------------

             Standard Nuclear Orientation (Angstroms)
    I     Atom           X                Y                Z
 ----------------------------------------------------------------
    1      C       0.4987880000    -3.8667250000    -0.5933240000
    2      C      -0.3935170000    -3.7039630000     0.4694460000
    3      C      -0.6856740000    -2.3570560000     0.8170500000
    4      H      -0.8371280000    -4.5610920000     0.9983810000
    5      C       0.0000000000    -1.4406640000     0.0000000000
    6      S       0.9927680000    -2.2869570000    -1.1831490000
    7      C      -1.6212540000    -1.9787430000     1.9316760000
    8      H      -2.0358450000    -2.8786780000     2.4258820000
    9      H      -2.4778680000    -1.3760150000     1.5639800000
   10      H      -1.1107190000    -1.3757280000     2.7114170000
   11      H       0.8847180000    -4.7834370000    -1.0528960000
   12      C       0.0000000000     0.0000000000     0.0000000000
   13      C       0.5551370000     0.6615350000     1.0994460000
   14      C       1.4447100000     1.7216580000     0.7767210000
   15      H       0.3180720000     0.3790230000     2.1360880000
   16      C       1.5865630000     1.8906760000    -0.6125460000
   17      S       0.6057810000     0.7219040000    -1.4868090000
   18      C       2.1439200000     2.5549070000     1.8146090000
   19      H       1.8703250000     2.2288510000     2.8366760000
   20      H       1.8808820000     3.6297420000     1.7262390000
   21      H       3.2480980000     2.4824760000     1.7262280000
   22      H       2.1967230000     2.6178060000    -1.1615750000
 ----------------------------------------------------------------

   10   -1179.6541681219      6.68e-07  Convergence criterion met
 Total energy in the final basis set =    -1179.6541681219
        RIMP2         total energy =     -1181.6412033467 a.u.

                    Orbital Energies (a.u.)
 --------------------------------------------------------------

 Alpha MOs
 -- Occupied --
-91.9862 -91.9810 -11.2769 -11.2767 -11.2720 -11.2612 -11.2548 -11.2536
-11.2410 -11.2390 -11.2308 -11.2275  -8.9863  -8.9808  -6.6672  -6.6665
 -6.6660  -6.6617  -6.6611  -6.6604  -1.1851  -1.1477  -1.0445  -1.0215
 -0.9970  -0.9558  -0.9103  -0.8931  -0.8015  -0.7522  -0.7326  -0.6966
 -0.6577  -0.6165  -0.5889  -0.5803  -0.5697  -0.5646  -0.5511  -0.5376
 -0.5319  -0.5187  -0.5079  -0.4896  -0.4805  -0.4697  -0.4527  -0.3636
 -0.3395  -0.3358  -0.2720

          Ground-State Mulliken Net Atomic Charges

     Atom                 Charge (a.u.)
  ----------------------------------------
      1 C                    -0.242349
      2 C                    -0.242754
      3 C                     0.014570
      4 H                     0.181507
      5 C                    -0.004127
      6 S                     0.020468
      7 C                    -0.294514
      8 H                     0.109028
      9 H                     0.109613
     10 H                     0.102838
     11 H                     0.202158
     12 C                    -0.048399
     13 C                    -0.166693
     14 C                     0.002075
     15 H                     0.195606
     16 C                    -0.202875
     17 S                     0.012833
     18 C                    -0.268849
     19 H                     0.102243
     20 H                     0.108454
     21 H                     0.107813
     22 H                     0.201355
  ----------------------------------------
  Sum of atomic charges =     0.000000

                    Cartesian Multipole Moments
 -----------------------------------------------------------------
    Charge (ESU x 10^10)
                -0.0000
    Dipole Moment (Debye)
         X       0.8144      Y       1.0879      Z       2.5786
       Tot       2.9148
    Quadrupole Moments (Debye-Ang)
        XX     -85.1870     XY       7.3235     YY     -75.6251
        XZ      -2.4394     YZ      -1.0100     ZZ     -82.5922

 Total job time:  566.76s(wall), 562.62s(cpu)
        *  Thank you very much for using Q-Chem.  Have a nice day.  *
