 Q-Chem 5.4, Q-Chem, Inc., Pleasanton, CA (2021)
 Q-Chem 5.4.0 for Intel X86 EM64T Linux

User input:
--------------------------------------------------------------
$molecule
0 1
C	-0.670924	-3.866725	-0.388181
C	0.530648	-3.703963	0.306020
C	0.923703	-2.357056	0.533378
H	1.128579	-4.561092	0.651043
C	-0.000000	-1.440664	-0.000000
S	-1.337567	-2.286957	-0.772234
C	2.183857	-1.978743	1.261192
H	2.742548	-2.878678	1.583666
H	1.970497	-1.376015	2.168641
H	2.863099	-1.375728	0.623012
H	-1.190530	-4.783437	-0.688443
C	0.000000	0.000000	0.000000
C	0.075300	0.860311	1.099446
C	0.195935	2.238951	0.776721
H	0.043151	0.492916	2.136088
C	0.215188	2.458766	-0.612546
S	0.082160	0.938811	-1.486809
C	0.290762	3.322559	1.814609
H	0.253664	2.898542	2.836676
H	-0.541206	4.052140	1.726239
H	1.236797	3.896558	1.726228
H	0.297938	3.404370	-1.161575
$end

$rem
JOBTYPE		SP
EXCHANGE	HF
CORRELATION	pRIMP2
BASIS		cc-pvtz
METHOD		rimp2
AUX_BASIS	rimp2-cc-pvtz
SOLVENT_METHOD	PCM
PURECART	11111
SYMMETRY	false
MEM_TOTAL	110000
SCF_CONVERGENCE = 6
THRESH=10
$end

$solvent
dielectric 4.90
$end
--------------------------------------------------------------

             Standard Nuclear Orientation (Angstroms)
    I     Atom           X                Y                Z
 ----------------------------------------------------------------
    1      C      -0.6709240000    -3.8667250000    -0.3881810000
    2      C       0.5306480000    -3.7039630000     0.3060200000
    3      C       0.9237030000    -2.3570560000     0.5333780000
    4      H       1.1285790000    -4.5610920000     0.6510430000
    5      C       0.0000000000    -1.4406640000     0.0000000000
    6      S      -1.3375670000    -2.2869570000    -0.7722340000
    7      C       2.1838570000    -1.9787430000     1.2611920000
    8      H       2.7425480000    -2.8786780000     1.5836660000
    9      H       1.9704970000    -1.3760150000     2.1686410000
   10      H       2.8630990000    -1.3757280000     0.6230120000
   11      H      -1.1905300000    -4.7834370000    -0.6884430000
   12      C       0.0000000000     0.0000000000     0.0000000000
   13      C       0.0753000000     0.8603110000     1.0994460000
   14      C       0.1959350000     2.2389510000     0.7767210000
   15      H       0.0431510000     0.4929160000     2.1360880000
   16      C       0.2151880000     2.4587660000    -0.6125460000
   17      S       0.0821600000     0.9388110000    -1.4868090000
   18      C       0.2907620000     3.3225590000     1.8146090000
   19      H       0.2536640000     2.8985420000     2.8366760000
   20      H      -0.5412060000     4.0521400000     1.7262390000
   21      H       1.2367970000     3.8965580000     1.7262280000
   22      H       0.2979380000     3.4043700000    -1.1615750000
 ----------------------------------------------------------------

   10   -1179.6859823003      5.19e-07  Convergence criterion met
 Total energy in the final basis set =    -1179.6859823003
        RIMP2         total energy =     -1181.6643514675 a.u.

                    Orbital Energies (a.u.)
 --------------------------------------------------------------

 Alpha MOs
 -- Occupied --
-91.9858 -91.9845 -11.2797 -11.2743 -11.2726 -11.2645 -11.2543 -11.2513
-11.2425 -11.2417 -11.2295 -11.2292  -8.9853  -8.9842  -6.6662  -6.6656
 -6.6651  -6.6650  -6.6646  -6.6640  -1.1791  -1.1498  -1.0405  -1.0240
 -0.9965  -0.9552  -0.9131  -0.8928  -0.8015  -0.7533  -0.7309  -0.6965
 -0.6623  -0.6157  -0.5839  -0.5799  -0.5704  -0.5668  -0.5522  -0.5336
 -0.5294  -0.5211  -0.5075  -0.4914  -0.4877  -0.4677  -0.4602  -0.3477
 -0.3398  -0.3362  -0.2890

          Ground-State Mulliken Net Atomic Charges

     Atom                 Charge (a.u.)
  ----------------------------------------
      1 C                    -0.214215
      2 C                    -0.248157
      3 C                     0.047139
      4 H                     0.184461
      5 C                    -0.038130
      6 S                     0.023207
      7 C                    -0.281527
      8 H                     0.110032
      9 H                     0.108393
     10 H                     0.113100
     11 H                     0.204836
     12 C                    -0.012591
     13 C                    -0.238253
     14 C                     0.020748
     15 H                     0.191147
     16 C                    -0.240870
     17 S                     0.025134
     18 C                    -0.271596
     19 H                     0.102360
     20 H                     0.108632
     21 H                     0.108037
     22 H                     0.198112
  ----------------------------------------
  Sum of atomic charges =     0.000000

                    Cartesian Multipole Moments
 -----------------------------------------------------------------
    Charge (ESU x 10^10)
                -0.0000
    Dipole Moment (Debye)
         X       1.4832      Y       0.2221      Z       2.2150
       Tot       2.6750
    Quadrupole Moments (Debye-Ang)
        XX     -87.7359     XY      -0.8659     YY     -68.6968
        XZ       2.9299     YZ      -0.0556     ZZ     -85.0981

 Total job time:  555.40s(wall), 550.16s(cpu)
        *  Thank you very much for using Q-Chem.  Have a nice day.  *
