 Q-Chem 5.4, Q-Chem, Inc., Pleasanton, CA (2021)
 Q-Chem 5.4.0 for Intel X86 EM64T Linux

User input:
--------------------------------------------------------------
$molecule
0 1
C	-0.763228	-3.866725	-0.135301
C	0.603311	-3.703963	0.106073
C	1.050423	-2.357056	0.185286
H	1.283188	-4.561092	0.225783
C	0.000000	-1.440664	0.000000
S	-1.521021	-2.286957	-0.268187
C	2.483507	-1.978743	0.438209
H	3.118798	-2.878678	0.550153
H	2.593381	-1.376015	1.363906
H	2.903516	-1.375728	-0.393798
H	-1.354194	-4.783437	-0.239740
C	0.000000	0.000000	0.000000
C	0.000033	0.863600	1.099446
C	0.000052	2.247508	0.776721
H	0.000026	0.494801	2.136088
C	0.000074	2.468165	-0.612546
S	0.000024	0.942399	-1.486809
C	0.000075	3.335257	1.814609
H	0.000074	2.909620	2.836676
H	-0.892314	3.989552	1.726239
H	0.892483	3.989525	1.726228
H	0.000094	3.417382	-1.161575
$end

$rem
JOBTYPE		SP
EXCHANGE	HF
CORRELATION	pRIMP2
BASIS		cc-pvtz
METHOD		rimp2
AUX_BASIS	rimp2-cc-pvtz
SOLVENT_METHOD	PCM
PURECART	11111
SYMMETRY	false
MEM_TOTAL	110000
SCF_CONVERGENCE = 6
THRESH=10
$end

$solvent
dielectric 4.90
$end
--------------------------------------------------------------

             Standard Nuclear Orientation (Angstroms)
    I     Atom           X                Y                Z
 ----------------------------------------------------------------
    1      C      -0.7632280000    -3.8667250000    -0.1353010000
    2      C       0.6033110000    -3.7039630000     0.1060730000
    3      C       1.0504230000    -2.3570560000     0.1852860000
    4      H       1.2831880000    -4.5610920000     0.2257830000
    5      C       0.0000000000    -1.4406640000     0.0000000000
    6      S      -1.5210210000    -2.2869570000    -0.2681870000
    7      C       2.4835070000    -1.9787430000     0.4382090000
    8      H       3.1187980000    -2.8786780000     0.5501530000
    9      H       2.5933810000    -1.3760150000     1.3639060000
   10      H       2.9035160000    -1.3757280000    -0.3937980000
   11      H      -1.3541940000    -4.7834370000    -0.2397400000
   12      C       0.0000000000     0.0000000000     0.0000000000
   13      C       0.0000330000     0.8636000000     1.0994460000
   14      C       0.0000520000     2.2475080000     0.7767210000
   15      H       0.0000260000     0.4948010000     2.1360880000
   16      C       0.0000740000     2.4681650000    -0.6125460000
   17      S       0.0000240000     0.9423990000    -1.4868090000
   18      C       0.0000750000     3.3352570000     1.8146090000
   19      H       0.0000740000     2.9096200000     2.8366760000
   20      H      -0.8923140000     3.9895520000     1.7262390000
   21      H       0.8924830000     3.9895250000     1.7262280000
   22      H       0.0000940000     3.4173820000    -1.1615750000
 ----------------------------------------------------------------

   10   -1179.6856175149      5.09e-07  Convergence criterion met
 Total energy in the final basis set =    -1179.6856175149
        RIMP2         total energy =     -1181.6634098079 a.u.

                    Orbital Energies (a.u.)
 --------------------------------------------------------------

 Alpha MOs
 -- Occupied --
-91.9855 -91.9843 -11.2787 -11.2728 -11.2726 -11.2647 -11.2544 -11.2508
-11.2423 -11.2419 -11.2294 -11.2290  -8.9849  -8.9840  -6.6658  -6.6653
 -6.6649  -6.6647  -6.6643  -6.6637  -1.1783  -1.1496  -1.0399  -1.0233
 -0.9969  -0.9544  -0.9133  -0.8923  -0.8010  -0.7531  -0.7310  -0.6953
 -0.6624  -0.6161  -0.5826  -0.5793  -0.5706  -0.5686  -0.5521  -0.5310
 -0.5304  -0.5202  -0.5077  -0.4915  -0.4881  -0.4647  -0.4626  -0.3466
 -0.3379  -0.3211  -0.3040

          Ground-State Mulliken Net Atomic Charges

     Atom                 Charge (a.u.)
  ----------------------------------------
      1 C                    -0.212731
      2 C                    -0.247959
      3 C                     0.046971
      4 H                     0.184359
      5 C                    -0.047695
      6 S                     0.025644
      7 C                    -0.280932
      8 H                     0.108060
      9 H                     0.109401
     10 H                     0.111028
     11 H                     0.204438
     12 C                    -0.012672
     13 C                    -0.225616
     14 C                     0.016718
     15 H                     0.186651
     16 C                    -0.238103
     17 S                     0.027283
     18 C                    -0.271441
     19 H                     0.102643
     20 H                     0.108395
     21 H                     0.107785
     22 H                     0.197774
  ----------------------------------------
  Sum of atomic charges =     0.000000

                    Cartesian Multipole Moments
 -----------------------------------------------------------------
    Charge (ESU x 10^10)
                -0.0000
    Dipole Moment (Debye)
         X       1.4908      Y       0.2377      Z       1.7121
       Tot       2.2825
    Quadrupole Moments (Debye-Ang)
        XX     -86.3435     XY      -2.1047     YY     -68.6949
        XZ       1.1127     YZ       0.6513     ZZ     -86.5387

 Total job time:  581.88s(wall), 579.33s(cpu)
        *  Thank you very much for using Q-Chem.  Have a nice day.  *
