 Q-Chem 5.4, Q-Chem, Inc., Pleasanton, CA (2021)
 Q-Chem 5.4.0 for Intel X86 EM64T Linux

User input:
--------------------------------------------------------------
$molecule
0 1
C	-0.135301	-3.866725	0.763228
C	0.106073	-3.703963	-0.603311
C	0.185286	-2.357056	-1.050423
H	0.225783	-4.561092	-1.283188
C	0.000000	-1.440664	0.000000
S	-0.268187	-2.286957	1.521021
C	0.438209	-1.978743	-2.483507
H	0.550153	-2.878678	-3.118798
H	1.363906	-1.376015	-2.593381
H	-0.393798	-1.375728	-2.903516
H	-0.239740	-4.783437	1.354194
C	0.000000	0.000000	0.000000
C	0.000033	0.863600	1.099446
C	0.000052	2.247508	0.776721
H	0.000026	0.494801	2.136088
C	0.000074	2.468165	-0.612546
S	0.000024	0.942399	-1.486809
C	0.000075	3.335257	1.814609
H	0.000074	2.909620	2.836676
H	-0.892314	3.989552	1.726239
H	0.892483	3.989525	1.726228
H	0.000094	3.417382	-1.161575
$end

$rem
JOBTYPE		SP
EXCHANGE	HF
CORRELATION	pRIMP2
BASIS		cc-pvtz
METHOD		rimp2
AUX_BASIS	rimp2-cc-pvtz
SOLVENT_METHOD	PCM
PURECART	11111
SYMMETRY	false
MEM_TOTAL	110000
SCF_CONVERGENCE = 6
THRESH=10
$end

$solvent
dielectric 4.90
$end
--------------------------------------------------------------

             Standard Nuclear Orientation (Angstroms)
    I     Atom           X                Y                Z
 ----------------------------------------------------------------
    1      C      -0.1353010000    -3.8667250000     0.7632280000
    2      C       0.1060730000    -3.7039630000    -0.6033110000
    3      C       0.1852860000    -2.3570560000    -1.0504230000
    4      H       0.2257830000    -4.5610920000    -1.2831880000
    5      C       0.0000000000    -1.4406640000     0.0000000000
    6      S      -0.2681870000    -2.2869570000     1.5210210000
    7      C       0.4382090000    -1.9787430000    -2.4835070000
    8      H       0.5501530000    -2.8786780000    -3.1187980000
    9      H       1.3639060000    -1.3760150000    -2.5933810000
   10      H      -0.3937980000    -1.3757280000    -2.9035160000
   11      H      -0.2397400000    -4.7834370000     1.3541940000
   12      C       0.0000000000     0.0000000000     0.0000000000
   13      C       0.0000330000     0.8636000000     1.0994460000
   14      C       0.0000520000     2.2475080000     0.7767210000
   15      H       0.0000260000     0.4948010000     2.1360880000
   16      C       0.0000740000     2.4681650000    -0.6125460000
   17      S       0.0000240000     0.9423990000    -1.4868090000
   18      C       0.0000750000     3.3352570000     1.8146090000
   19      H       0.0000740000     2.9096200000     2.8366760000
   20      H      -0.8923140000     3.9895520000     1.7262390000
   21      H       0.8924830000     3.9895250000     1.7262280000
   22      H       0.0000940000     3.4173820000    -1.1615750000
 ----------------------------------------------------------------

   10   -1179.6866923078      5.47e-07  Convergence criterion met
 Total energy in the final basis set =    -1179.6866923078
        RIMP2         total energy =     -1181.6669951454 a.u.

                    Orbital Energies (a.u.)
 --------------------------------------------------------------

 Alpha MOs
 -- Occupied --
-91.9852 -91.9851 -11.2845 -11.2784 -11.2734 -11.2614 -11.2546 -11.2521
-11.2438 -11.2393 -11.2305 -11.2288  -8.9850  -8.9849  -6.6659  -6.6658
 -6.6654  -6.6653  -6.6647  -6.6646  -1.1815  -1.1501  -1.0422  -1.0261
 -0.9989  -0.9525  -0.9154  -0.8952  -0.8007  -0.7655  -0.7195  -0.6961
 -0.6637  -0.6157  -0.5846  -0.5822  -0.5772  -0.5696  -0.5532  -0.5343
 -0.5235  -0.5210  -0.5114  -0.4963  -0.4909  -0.4677  -0.4510  -0.3707
 -0.3436  -0.3404  -0.2688

          Ground-State Mulliken Net Atomic Charges

     Atom                 Charge (a.u.)
  ----------------------------------------
      1 C                    -0.211118
      2 C                    -0.255823
      3 C                     0.050327
      4 H                     0.185136
      5 C                    -0.021653
      6 S                     0.007556
      7 C                    -0.321204
      8 H                     0.118049
      9 H                     0.119373
     10 H                     0.112937
     11 H                     0.207720
     12 C                     0.062734
     13 C                    -0.275162
     14 C                     0.034129
     15 H                     0.176907
     16 C                    -0.258070
     17 S                     0.020703
     18 C                    -0.271494
     19 H                     0.102822
     20 H                     0.108680
     21 H                     0.108427
     22 H                     0.199027
  ----------------------------------------
  Sum of atomic charges =     0.000000

                    Cartesian Multipole Moments
 -----------------------------------------------------------------
    Charge (ESU x 10^10)
                -0.0000
    Dipole Moment (Debye)
         X       0.2802      Y      -0.0073      Z      -0.1645
       Tot       0.3250
    Quadrupole Moments (Debye-Ang)
        XX     -92.5741     XY      -0.4022     YY     -68.4469
        XZ      -1.1950     YZ       3.3242     ZZ     -80.0080

 Total job time:  588.27s(wall), 584.73s(cpu)
        *  Thank you very much for using Q-Chem.  Have a nice day.  *
