 Q-Chem 5.4, Q-Chem, Inc., Pleasanton, CA (2021)
 Q-Chem 5.4.0 for Intel X86 EM64T Linux

User input:
--------------------------------------------------------------
$molecule
0 1
C	0.728138	-3.866725	0.265779
C	-0.575726	-3.703963	-0.209225
C	-1.002290	-2.357056	-0.364875
H	-1.224486	-4.561092	-0.445176
C	0.000000	-1.440664	0.000000
S	1.451343	-2.286957	0.528236
C	-2.369683	-1.978743	-0.862808
H	-2.975883	-2.878678	-1.083368
H	-2.317142	-1.376015	-1.793522
H	-2.927787	-1.375728	-0.116375
H	1.291990	-4.783437	0.471251
C	0.000000	0.000000	0.000000
C	0.000033	0.863600	1.099446
C	0.000052	2.247508	0.776721
H	0.000026	0.494801	2.136088
C	0.000074	2.468165	-0.612546
S	0.000024	0.942399	-1.486809
C	0.000075	3.335257	1.814609
H	0.000074	2.909620	2.836676
H	-0.892314	3.989552	1.726239
H	0.892483	3.989525	1.726228
H	0.000094	3.417382	-1.161575
$end

$rem
JOBTYPE		SP
EXCHANGE	HF
CORRELATION	pRIMP2
BASIS		cc-pvtz
METHOD		rimp2
AUX_BASIS	rimp2-cc-pvtz
SOLVENT_METHOD	PCM
PURECART	11111
SYMMETRY	false
MEM_TOTAL	110000
SCF_CONVERGENCE = 6
THRESH=10
$end

$solvent
dielectric 4.90
$end
--------------------------------------------------------------

             Standard Nuclear Orientation (Angstroms)
    I     Atom           X                Y                Z
 ----------------------------------------------------------------
    1      C       0.7281380000    -3.8667250000     0.2657790000
    2      C      -0.5757260000    -3.7039630000    -0.2092250000
    3      C      -1.0022900000    -2.3570560000    -0.3648750000
    4      H      -1.2244860000    -4.5610920000    -0.4451760000
    5      C       0.0000000000    -1.4406640000     0.0000000000
    6      S       1.4513430000    -2.2869570000     0.5282360000
    7      C      -2.3696830000    -1.9787430000    -0.8628080000
    8      H      -2.9758830000    -2.8786780000    -1.0833680000
    9      H      -2.3171420000    -1.3760150000    -1.7935220000
   10      H      -2.9277870000    -1.3757280000    -0.1163750000
   11      H       1.2919900000    -4.7834370000     0.4712510000
   12      C       0.0000000000     0.0000000000     0.0000000000
   13      C       0.0000330000     0.8636000000     1.0994460000
   14      C       0.0000520000     2.2475080000     0.7767210000
   15      H       0.0000260000     0.4948010000     2.1360880000
   16      C       0.0000740000     2.4681650000    -0.6125460000
   17      S       0.0000240000     0.9423990000    -1.4868090000
   18      C       0.0000750000     3.3352570000     1.8146090000
   19      H       0.0000740000     2.9096200000     2.8366760000
   20      H      -0.8923140000     3.9895520000     1.7262390000
   21      H       0.8924830000     3.9895250000     1.7262280000
   22      H       0.0000940000     3.4173820000    -1.1615750000
 ----------------------------------------------------------------

   10   -1179.6862065105      5.04e-07  Convergence criterion met
 Total energy in the final basis set =    -1179.6862065105
        RIMP2         total energy =     -1181.6641328216 a.u.

                    Orbital Energies (a.u.)
 --------------------------------------------------------------

 Alpha MOs
 -- Occupied --
-91.9854 -91.9850 -11.2795 -11.2734 -11.2723 -11.2646 -11.2538 -11.2509
-11.2423 -11.2421 -11.2291 -11.2289  -8.9848  -8.9846  -6.6657  -6.6654
 -6.6652  -6.6649  -6.6646  -6.6643  -1.1786  -1.1496  -1.0402  -1.0230
 -0.9978  -0.9535  -0.9140  -0.8923  -0.8006  -0.7567  -0.7278  -0.6947
 -0.6625  -0.6163  -0.5825  -0.5786  -0.5725  -0.5694  -0.5520  -0.5324
 -0.5281  -0.5196  -0.5080  -0.4929  -0.4882  -0.4655  -0.4609  -0.3449
 -0.3412  -0.3286  -0.2960

          Ground-State Mulliken Net Atomic Charges

     Atom                 Charge (a.u.)
  ----------------------------------------
      1 C                    -0.214286
      2 C                    -0.248059
      3 C                     0.037307
      4 H                     0.184404
      5 C                    -0.038050
      6 S                     0.025621
      7 C                    -0.282101
      8 H                     0.107984
      9 H                     0.109933
     10 H                     0.111111
     11 H                     0.204473
     12 C                    -0.004730
     13 C                    -0.235090
     14 C                     0.019775
     15 H                     0.187609
     16 C                    -0.237924
     17 S                     0.026365
     18 C                    -0.271209
     19 H                     0.102816
     20 H                     0.107889
     21 H                     0.108324
     22 H                     0.197838
  ----------------------------------------
  Sum of atomic charges =     0.000000

                    Cartesian Multipole Moments
 -----------------------------------------------------------------
    Charge (ESU x 10^10)
                -0.0000
    Dipole Moment (Debye)
         X      -1.4120      Y       0.2412      Z       0.9142
       Tot       1.6993
    Quadrupole Moments (Debye-Ang)
        XX     -86.9247     XY       1.9971     YY     -68.7354
        XZ       2.1567     YZ       1.7716     ZZ     -85.9371

 Total job time:  578.76s(wall), 575.82s(cpu)
        *  Thank you very much for using Q-Chem.  Have a nice day.  *
