 Q-Chem 5.4, Q-Chem, Inc., Pleasanton, CA (2021)
 Q-Chem 5.4.0 for Intel X86 EM64T Linux

User input:
--------------------------------------------------------------
$molecule
0 1
C	0.594240	-3.866725	-0.497696
C	-0.469057	-3.703963	0.393981
C	-0.817136	-2.357056	0.685571
H	-0.997777	-4.561092	0.837848
C	-0.000000	-1.440664	-0.000000
S	1.183137	-2.286957	-0.992782
C	-1.932056	-1.978743	1.620802
H	-2.426166	-2.878678	2.035506
H	-2.711806	-1.376015	1.109943
H	-1.564678	-1.375728	2.477350
H	1.054110	-4.783437	-0.883271
C	0.000000	0.000000	0.000000
C	0.075300	0.860311	1.099446
C	0.195935	2.238951	0.776721
H	0.043151	0.492916	2.136088
C	0.215188	2.458766	-0.612546
S	0.082160	0.938811	-1.486809
C	0.290762	3.322559	1.814609
H	0.253664	2.898542	2.836676
H	-0.541206	4.052140	1.726239
H	1.236797	3.896558	1.726228
H	0.297938	3.404370	-1.161575
$end

$rem
JOBTYPE		SP
EXCHANGE	HF
CORRELATION	pRIMP2
BASIS		cc-pvtz
METHOD		rimp2
AUX_BASIS	rimp2-cc-pvtz
SOLVENT_METHOD	PCM
PURECART	11111
SYMMETRY	false
MEM_TOTAL	110000
SCF_CONVERGENCE = 6
THRESH=10
$end

$solvent
dielectric 4.90
$end
--------------------------------------------------------------

             Standard Nuclear Orientation (Angstroms)
    I     Atom           X                Y                Z
 ----------------------------------------------------------------
    1      C       0.5942400000    -3.8667250000    -0.4976960000
    2      C      -0.4690570000    -3.7039630000     0.3939810000
    3      C      -0.8171360000    -2.3570560000     0.6855710000
    4      H      -0.9977770000    -4.5610920000     0.8378480000
    5      C       0.0000000000    -1.4406640000     0.0000000000
    6      S       1.1831370000    -2.2869570000    -0.9927820000
    7      C      -1.9320560000    -1.9787430000     1.6208020000
    8      H      -2.4261660000    -2.8786780000     2.0355060000
    9      H      -2.7118060000    -1.3760150000     1.1099430000
   10      H      -1.5646780000    -1.3757280000     2.4773500000
   11      H       1.0541100000    -4.7834370000    -0.8832710000
   12      C       0.0000000000     0.0000000000     0.0000000000
   13      C       0.0753000000     0.8603110000     1.0994460000
   14      C       0.1959350000     2.2389510000     0.7767210000
   15      H       0.0431510000     0.4929160000     2.1360880000
   16      C       0.2151880000     2.4587660000    -0.6125460000
   17      S       0.0821600000     0.9388110000    -1.4868090000
   18      C       0.2907620000     3.3225590000     1.8146090000
   19      H       0.2536640000     2.8985420000     2.8366760000
   20      H      -0.5412060000     4.0521400000     1.7262390000
   21      H       1.2367970000     3.8965580000     1.7262280000
   22      H       0.2979380000     3.4043700000    -1.1615750000
 ----------------------------------------------------------------

   10   -1179.6862841601      5.16e-07  Convergence criterion met
 Total energy in the final basis set =    -1179.6862841601
        RIMP2         total energy =     -1181.6647894943 a.u.

                    Orbital Energies (a.u.)
 --------------------------------------------------------------

 Alpha MOs
 -- Occupied --
-91.9862 -91.9852 -11.2811 -11.2755 -11.2720 -11.2642 -11.2534 -11.2517
-11.2427 -11.2415 -11.2297 -11.2292  -8.9857  -8.9849  -6.6666  -6.6661
 -6.6658  -6.6655  -6.6652  -6.6646  -1.1797  -1.1499  -1.0409  -1.0246
 -0.9964  -0.9557  -0.9130  -0.8933  -0.8023  -0.7538  -0.7303  -0.6969
 -0.6623  -0.6154  -0.5852  -0.5802  -0.5700  -0.5661  -0.5523  -0.5351
 -0.5297  -0.5212  -0.5070  -0.4911  -0.4881  -0.4707  -0.4584  -0.3534
 -0.3415  -0.3379  -0.2824

          Ground-State Mulliken Net Atomic Charges

     Atom                 Charge (a.u.)
  ----------------------------------------
      1 C                    -0.214409
      2 C                    -0.248424
      3 C                     0.040962
      4 H                     0.184506
      5 C                    -0.037305
      6 S                     0.019969
      7 C                    -0.285011
      8 H                     0.109935
      9 H                     0.112586
     10 H                     0.107670
     11 H                     0.204994
     12 C                     0.002373
     13 C                    -0.233062
     14 C                     0.017904
     15 H                     0.192432
     16 C                    -0.239851
     17 S                     0.019546
     18 C                    -0.272251
     19 H                     0.102204
     20 H                     0.108137
     21 H                     0.108802
     22 H                     0.198292
  ----------------------------------------
  Sum of atomic charges =     0.000000

                    Cartesian Multipole Moments
 -----------------------------------------------------------------
    Charge (ESU x 10^10)
                -0.0000
    Dipole Moment (Debye)
         X      -0.9790      Y       0.2363      Z       2.4111
       Tot       2.6130
    Quadrupole Moments (Debye-Ang)
        XX     -88.8147     XY       2.5288     YY     -68.7188
        XZ      -3.1342     YZ      -0.3549     ZZ     -83.9985

 Total job time:  553.09s(wall), 548.28s(cpu)
        *  Thank you very much for using Q-Chem.  Have a nice day.  *
