 Q-Chem 5.4, Q-Chem, Inc., Pleasanton, CA (2021)
 Q-Chem 5.4.0 for Intel X86 EM64T Linux

User input:
--------------------------------------------------------------
$molecule
0 1
C	-0.498788	-3.866725	0.593324
C	0.393517	-3.703963	-0.469446
C	0.685674	-2.357056	-0.817050
H	0.837128	-4.561092	-0.998381
C	0.000000	-1.440664	0.000000
S	-0.992768	-2.286957	1.183149
C	1.621254	-1.978743	-1.931676
H	2.035845	-2.878678	-2.425882
H	2.477868	-1.376015	-1.563980
H	1.110719	-1.375728	-2.711417
H	-0.884718	-4.783437	1.052896
C	0.000000	0.000000	0.000000
C	0.661577	0.555087	1.099446
C	1.721724	1.444630	0.776721
H	0.379056	0.318032	2.136088
C	1.890772	1.586449	-0.612546
S	0.721935	0.605744	-1.486809
C	2.555004	2.143805	1.814609
H	2.228946	1.870211	2.836676
H	2.482605	3.247987	1.726239
H	3.629830	1.880735	1.726228
H	2.617927	2.196579	-1.161575
$end

$rem
JOBTYPE		SP
EXCHANGE	HF
CORRELATION	pRIMP2
BASIS		cc-pvtz
METHOD		rimp2
AUX_BASIS	rimp2-cc-pvtz
SOLVENT_METHOD	PCM
PURECART	11111
SYMMETRY	false
MEM_TOTAL	110000
SCF_CONVERGENCE = 6
THRESH=10
$end

$solvent
dielectric 4.90
$end
--------------------------------------------------------------

             Standard Nuclear Orientation (Angstroms)
    I     Atom           X                Y                Z
 ----------------------------------------------------------------
    1      C      -0.4987880000    -3.8667250000     0.5933240000
    2      C       0.3935170000    -3.7039630000    -0.4694460000
    3      C       0.6856740000    -2.3570560000    -0.8170500000
    4      H       0.8371280000    -4.5610920000    -0.9983810000
    5      C       0.0000000000    -1.4406640000     0.0000000000
    6      S      -0.9927680000    -2.2869570000     1.1831490000
    7      C       1.6212540000    -1.9787430000    -1.9316760000
    8      H       2.0358450000    -2.8786780000    -2.4258820000
    9      H       2.4778680000    -1.3760150000    -1.5639800000
   10      H       1.1107190000    -1.3757280000    -2.7114170000
   11      H      -0.8847180000    -4.7834370000     1.0528960000
   12      C       0.0000000000     0.0000000000     0.0000000000
   13      C       0.6615770000     0.5550870000     1.0994460000
   14      C       1.7217240000     1.4446300000     0.7767210000
   15      H       0.3790560000     0.3180320000     2.1360880000
   16      C       1.8907720000     1.5864490000    -0.6125460000
   17      S       0.7219350000     0.6057440000    -1.4868090000
   18      C       2.5550040000     2.1438050000     1.8146090000
   19      H       2.2289460000     1.8702110000     2.8366760000
   20      H       2.4826050000     3.2479870000     1.7262390000
   21      H       3.6298300000     1.8807350000     1.7262280000
   22      H       2.6179270000     2.1965790000    -1.1615750000
 ----------------------------------------------------------------

   10   -1179.6192197828      9.61e-07  Convergence criterion met
 Total energy in the final basis set =    -1179.6192197828
        RIMP2         total energy =     -1181.6157804139 a.u.

                    Orbital Energies (a.u.)
 --------------------------------------------------------------

 Alpha MOs
 -- Occupied --
-91.9808 -91.9757 -11.2820 -11.2788 -11.2635 -11.2603 -11.2579 -11.2531
-11.2393 -11.2381 -11.2307 -11.2209  -8.9821  -8.9760  -6.6626  -6.6620
 -6.6617  -6.6570  -6.6564  -6.6558  -1.1877  -1.1459  -1.0456  -1.0207
 -0.9983  -0.9517  -0.9100  -0.8943  -0.7943  -0.7616  -0.7276  -0.6951
 -0.6556  -0.6189  -0.5865  -0.5817  -0.5757  -0.5683  -0.5494  -0.5367
 -0.5250  -0.5216  -0.5114  -0.4939  -0.4688  -0.4565  -0.4468  -0.3626
 -0.3377  -0.3309  -0.2698

          Ground-State Mulliken Net Atomic Charges

     Atom                 Charge (a.u.)
  ----------------------------------------
      1 C                    -0.229779
      2 C                    -0.254887
      3 C                     0.014642
      4 H                     0.183207
      5 C                     0.003368
      6 S                    -0.010117
      7 C                    -0.281047
      8 H                     0.102041
      9 H                     0.112803
     10 H                     0.109703
     11 H                     0.200935
     12 C                    -0.092457
     13 C                    -0.133154
     14 C                    -0.011771
     15 H                     0.190291
     16 C                    -0.195366
     17 S                     0.040341
     18 C                    -0.266481
     19 H                     0.103336
     20 H                     0.107446
     21 H                     0.105970
     22 H                     0.200980
  ----------------------------------------
  Sum of atomic charges =     0.000000

                    Cartesian Multipole Moments
 -----------------------------------------------------------------
    Charge (ESU x 10^10)
                -0.0000
    Dipole Moment (Debye)
         X       3.3050      Y       1.1406      Z       0.1756
       Tot       3.5007
    Quadrupole Moments (Debye-Ang)
        XX     -82.9967     XY       4.6800     YY     -79.2084
        XZ      -2.5543     YZ       2.2871     ZZ     -82.2286

 Total job time:  589.79s(wall), 586.61s(cpu)
        *  Thank you very much for using Q-Chem.  Have a nice day.  *
