 Q-Chem 5.4, Q-Chem, Inc., Pleasanton, CA (2021)
 Q-Chem 5.4.0 for Intel X86 EM64T Linux

User input:
--------------------------------------------------------------
$molecule
0 1
C	0.594240	-3.866725	-0.497696
C	-0.469057	-3.703963	0.393981
C	-0.817136	-2.357056	0.685571
H	-0.997777	-4.561092	0.837848
C	-0.000000	-1.440664	-0.000000
S	1.183137	-2.286957	-0.992782
C	-1.932056	-1.978743	1.620802
H	-2.426166	-2.878678	2.035506
H	-2.711806	-1.376015	1.109943
H	-1.564678	-1.375728	2.477350
H	1.054110	-4.783437	-0.883271
C	0.000000	0.000000	0.000000
C	0.555137	0.661535	1.099446
C	1.444710	1.721658	0.776721
H	0.318072	0.379023	2.136088
C	1.586563	1.890676	-0.612546
S	0.605781	0.721904	-1.486809
C	2.143920	2.554907	1.814609
H	1.870325	2.228851	2.836676
H	1.880882	3.629742	1.726239
H	3.248098	2.482476	1.726228
H	2.196723	2.617806	-1.161575
$end

$rem
JOBTYPE		SP
EXCHANGE	HF
CORRELATION	pRIMP2
BASIS		cc-pvtz
METHOD		rimp2
AUX_BASIS	rimp2-cc-pvtz
SOLVENT_METHOD	PCM
PURECART	11111
SYMMETRY	false
MEM_TOTAL	110000
SCF_CONVERGENCE = 6
THRESH=10
$end

$solvent
dielectric 4.90
$end
--------------------------------------------------------------

             Standard Nuclear Orientation (Angstroms)
    I     Atom           X                Y                Z
 ----------------------------------------------------------------
    1      C       0.5942400000    -3.8667250000    -0.4976960000
    2      C      -0.4690570000    -3.7039630000     0.3939810000
    3      C      -0.8171360000    -2.3570560000     0.6855710000
    4      H      -0.9977770000    -4.5610920000     0.8378480000
    5      C       0.0000000000    -1.4406640000     0.0000000000
    6      S       1.1831370000    -2.2869570000    -0.9927820000
    7      C      -1.9320560000    -1.9787430000     1.6208020000
    8      H      -2.4261660000    -2.8786780000     2.0355060000
    9      H      -2.7118060000    -1.3760150000     1.1099430000
   10      H      -1.5646780000    -1.3757280000     2.4773500000
   11      H       1.0541100000    -4.7834370000    -0.8832710000
   12      C       0.0000000000     0.0000000000     0.0000000000
   13      C       0.5551370000     0.6615350000     1.0994460000
   14      C       1.4447100000     1.7216580000     0.7767210000
   15      H       0.3180720000     0.3790230000     2.1360880000
   16      C       1.5865630000     1.8906760000    -0.6125460000
   17      S       0.6057810000     0.7219040000    -1.4868090000
   18      C       2.1439200000     2.5549070000     1.8146090000
   19      H       1.8703250000     2.2288510000     2.8366760000
   20      H       1.8808820000     3.6297420000     1.7262390000
   21      H       3.2480980000     2.4824760000     1.7262280000
   22      H       2.1967230000     2.6178060000    -1.1615750000
 ----------------------------------------------------------------

   10   -1179.6545599895      6.36e-07  Convergence criterion met
 Total energy in the final basis set =    -1179.6545599895
        RIMP2         total energy =     -1181.6410045308 a.u.

                    Orbital Energies (a.u.)
 --------------------------------------------------------------

 Alpha MOs
 -- Occupied --
-91.9859 -91.9808 -11.2765 -11.2752 -11.2705 -11.2625 -11.2541 -11.2530
-11.2418 -11.2387 -11.2305 -11.2271  -8.9859  -8.9805  -6.6668  -6.6661
 -6.6656  -6.6614  -6.6608  -6.6602  -1.1843  -1.1475  -1.0438  -1.0207
 -0.9970  -0.9551  -0.9102  -0.8926  -0.8008  -0.7507  -0.7340  -0.6952
 -0.6579  -0.6169  -0.5869  -0.5796  -0.5693  -0.5660  -0.5508  -0.5357
 -0.5316  -0.5182  -0.5083  -0.4896  -0.4781  -0.4686  -0.4557  -0.3601
 -0.3397  -0.3313  -0.2770

          Ground-State Mulliken Net Atomic Charges

     Atom                 Charge (a.u.)
  ----------------------------------------
      1 C                    -0.236481
      2 C                    -0.245318
      3 C                     0.020957
      4 H                     0.181415
      5 C                    -0.016170
      6 S                     0.023953
      7 C                    -0.289630
      8 H                     0.107454
      9 H                     0.108853
     10 H                     0.104602
     11 H                     0.202086
     12 C                    -0.054201
     13 C                    -0.165137
     14 C                     0.002321
     15 H                     0.193464
     16 C                    -0.202898
     17 S                     0.014722
     18 C                    -0.268743
     19 H                     0.102454
     20 H                     0.108185
     21 H                     0.107609
     22 H                     0.200503
  ----------------------------------------
  Sum of atomic charges =     0.000000

                    Cartesian Multipole Moments
 -----------------------------------------------------------------
    Charge (ESU x 10^10)
                -0.0000
    Dipole Moment (Debye)
         X       0.6194      Y       1.0013      Z       2.4184
       Tot       2.6898
    Quadrupole Moments (Debye-Ang)
        XX     -84.1883     XY       7.5127     YY     -75.4591
        XZ      -2.4469     YZ      -0.7389     ZZ     -83.6331

 Total job time:  570.30s(wall), 567.12s(cpu)
        *  Thank you very much for using Q-Chem.  Have a nice day.  *
