 Q-Chem 5.4, Q-Chem, Inc., Pleasanton, CA (2021)
 Q-Chem 5.4.0 for Intel X86 EM64T Linux

User input:
--------------------------------------------------------------
$molecule
0 1
C	-0.133897	-3.866725	-0.763475
C	0.106669	-3.703963	0.603206
C	0.185154	-2.357056	1.050446
H	0.226709	-4.561092	1.283024
C	-0.000000	-1.440664	-0.000000
S	-0.268206	-2.286957	-1.521018
C	0.437628	-1.978743	2.483610
H	0.549717	-2.878678	3.118875
H	-0.394664	-1.376015	2.903464
H	1.363110	-1.375728	2.593726
H	-0.237880	-4.783437	-1.354522
C	0.000000	0.000000	0.000000
C	0.075300	0.860311	1.099446
C	0.195935	2.238951	0.776721
H	0.043151	0.492916	2.136088
C	0.215188	2.458766	-0.612546
S	0.082160	0.938811	-1.486809
C	0.290762	3.322559	1.814609
H	0.253664	2.898542	2.836676
H	-0.541206	4.052140	1.726239
H	1.236797	3.896558	1.726228
H	0.297938	3.404370	-1.161575
$end

$rem
JOBTYPE		SP
EXCHANGE	HF
CORRELATION	pRIMP2
BASIS		cc-pvtz
METHOD		rimp2
AUX_BASIS	rimp2-cc-pvtz
SOLVENT_METHOD	PCM
PURECART	11111
SYMMETRY	false
MEM_TOTAL	110000
SCF_CONVERGENCE = 6
THRESH=10
$end

$solvent
dielectric 4.90
$end
--------------------------------------------------------------

             Standard Nuclear Orientation (Angstroms)
    I     Atom           X                Y                Z
 ----------------------------------------------------------------
    1      C      -0.1338970000    -3.8667250000    -0.7634750000
    2      C       0.1066690000    -3.7039630000     0.6032060000
    3      C       0.1851540000    -2.3570560000     1.0504460000
    4      H       0.2267090000    -4.5610920000     1.2830240000
    5      C       0.0000000000    -1.4406640000     0.0000000000
    6      S      -0.2682060000    -2.2869570000    -1.5210180000
    7      C       0.4376280000    -1.9787430000     2.4836100000
    8      H       0.5497170000    -2.8786780000     3.1188750000
    9      H      -0.3946640000    -1.3760150000     2.9034640000
   10      H       1.3631100000    -1.3757280000     2.5937260000
   11      H      -0.2378800000    -4.7834370000    -1.3545220000
   12      C       0.0000000000     0.0000000000     0.0000000000
   13      C       0.0753000000     0.8603110000     1.0994460000
   14      C       0.1959350000     2.2389510000     0.7767210000
   15      H       0.0431510000     0.4929160000     2.1360880000
   16      C       0.2151880000     2.4587660000    -0.6125460000
   17      S       0.0821600000     0.9388110000    -1.4868090000
   18      C       0.2907620000     3.3225590000     1.8146090000
   19      H       0.2536640000     2.8985420000     2.8366760000
   20      H      -0.5412060000     4.0521400000     1.7262390000
   21      H       1.2367970000     3.8965580000     1.7262280000
   22      H       0.2979380000     3.4043700000    -1.1615750000
 ----------------------------------------------------------------

   10   -1179.6852037779      5.23e-07  Convergence criterion met
 Total energy in the final basis set =    -1179.6852037779
        RIMP2         total energy =     -1181.6653183680 a.u.

                    Orbital Energies (a.u.)
 --------------------------------------------------------------

 Alpha MOs
 -- Occupied --
-91.9858 -91.9851 -11.2838 -11.2787 -11.2730 -11.2639 -11.2544 -11.2522
-11.2442 -11.2396 -11.2319 -11.2294  -8.9856  -8.9851  -6.6665  -6.6661
 -6.6660  -6.6655  -6.6653  -6.6649  -1.1817  -1.1505  -1.0421  -1.0281
 -0.9959  -0.9565  -0.9149  -0.8947  -0.8035  -0.7572  -0.7270  -0.7010
 -0.6625  -0.6141  -0.5908  -0.5823  -0.5701  -0.5641  -0.5524  -0.5401
 -0.5295  -0.5240  -0.5043  -0.4911  -0.4887  -0.4775  -0.4511  -0.3704
 -0.3478  -0.3377  -0.2691

          Ground-State Mulliken Net Atomic Charges

     Atom                 Charge (a.u.)
  ----------------------------------------
      1 C                    -0.212096
      2 C                    -0.256039
      3 C                     0.077137
      4 H                     0.184255
      5 C                    -0.050553
      6 S                     0.008668
      7 C                    -0.314778
      8 H                     0.119185
      9 H                     0.107331
     10 H                     0.115373
     11 H                     0.207849
     12 C                     0.035303
     13 C                    -0.246953
     14 C                     0.025921
     15 H                     0.195844
     16 C                    -0.252921
     17 S                     0.009226
     18 C                    -0.271645
     19 H                     0.101403
     20 H                     0.108643
     21 H                     0.108945
     22 H                     0.199903
  ----------------------------------------
  Sum of atomic charges =     0.000000

                    Cartesian Multipole Moments
 -----------------------------------------------------------------
    Charge (ESU x 10^10)
                -0.0000
    Dipole Moment (Debye)
         X       0.4273      Y       0.1014      Z       2.9202
       Tot       2.9531
    Quadrupole Moments (Debye-Ang)
        XX     -92.4967     XY       0.5766     YY     -68.2542
        XZ       1.2510     YZ      -1.1393     ZZ     -80.2359

 Total job time:  566.61s(wall), 562.54s(cpu)
        *  Thank you very much for using Q-Chem.  Have a nice day.  *
