 Q-Chem 5.4, Q-Chem, Inc., Pleasanton, CA (2021)
 Q-Chem 5.4.0 for Intel X86 EM64T Linux

User input:
--------------------------------------------------------------
$molecule
0 1
C	0.593324	-3.866725	0.498788
C	-0.469446	-3.703963	-0.393517
C	-0.817050	-2.357056	-0.685674
H	-0.998381	-4.561092	-0.837128
C	-0.000000	-1.440664	-0.000000
S	1.183149	-2.286957	0.992768
C	-1.931676	-1.978743	-1.621254
H	-2.425882	-2.878678	-2.035845
H	-1.563980	-1.376015	-2.477868
H	-2.711417	-1.375728	-1.110719
H	1.052896	-4.783437	0.884718
C	0.000000	0.000000	0.000000
C	0.149995	0.850475	1.099446
C	0.390327	2.213354	0.776721
H	0.085947	0.487279	2.136088
C	0.428665	2.430655	-0.612546
S	0.163670	0.928078	-1.486809
C	0.579235	3.284574	1.814609
H	0.505323	2.865404	2.836676
H	-0.185980	4.083890	1.726239
H	1.571698	3.773937	1.726228
H	0.593515	3.365448	-1.161575
$end

$rem
JOBTYPE		SP
EXCHANGE	HF
CORRELATION	pRIMP2
BASIS		cc-pvtz
METHOD		rimp2
AUX_BASIS	rimp2-cc-pvtz
SOLVENT_METHOD	PCM
PURECART	11111
SYMMETRY	false
MEM_TOTAL	110000
SCF_CONVERGENCE = 6
THRESH=10
$end

$solvent
dielectric 4.90
$end
--------------------------------------------------------------

             Standard Nuclear Orientation (Angstroms)
    I     Atom           X                Y                Z
 ----------------------------------------------------------------
    1      C       0.5933240000    -3.8667250000     0.4987880000
    2      C      -0.4694460000    -3.7039630000    -0.3935170000
    3      C      -0.8170500000    -2.3570560000    -0.6856740000
    4      H      -0.9983810000    -4.5610920000    -0.8371280000
    5      C       0.0000000000    -1.4406640000     0.0000000000
    6      S       1.1831490000    -2.2869570000     0.9927680000
    7      C      -1.9316760000    -1.9787430000    -1.6212540000
    8      H      -2.4258820000    -2.8786780000    -2.0358450000
    9      H      -1.5639800000    -1.3760150000    -2.4778680000
   10      H      -2.7114170000    -1.3757280000    -1.1107190000
   11      H       1.0528960000    -4.7834370000     0.8847180000
   12      C       0.0000000000     0.0000000000     0.0000000000
   13      C       0.1499950000     0.8504750000     1.0994460000
   14      C       0.3903270000     2.2133540000     0.7767210000
   15      H       0.0859470000     0.4872790000     2.1360880000
   16      C       0.4286650000     2.4306550000    -0.6125460000
   17      S       0.1636700000     0.9280780000    -1.4868090000
   18      C       0.5792350000     3.2845740000     1.8146090000
   19      H       0.5053230000     2.8654040000     2.8366760000
   20      H      -0.1859800000     4.0838900000     1.7262390000
   21      H       1.5716980000     3.7739370000     1.7262280000
   22      H       0.5935150000     3.3654480000    -1.1615750000
 ----------------------------------------------------------------

   10   -1179.6857346336      5.21e-07  Convergence criterion met
 Total energy in the final basis set =    -1179.6857346336
        RIMP2         total energy =     -1181.6644519709 a.u.

                    Orbital Energies (a.u.)
 --------------------------------------------------------------

 Alpha MOs
 -- Occupied --
-91.9856 -91.9852 -11.2805 -11.2746 -11.2720 -11.2648 -11.2529 -11.2515
-11.2424 -11.2419 -11.2295 -11.2290  -8.9852  -8.9848  -6.6660  -6.6657
 -6.6655  -6.6652  -6.6649  -6.6646  -1.1797  -1.1498  -1.0409  -1.0237
 -0.9986  -0.9527  -0.9147  -0.8928  -0.8006  -0.7602  -0.7247  -0.6942
 -0.6627  -0.6163  -0.5832  -0.5784  -0.5748  -0.5696  -0.5522  -0.5337
 -0.5265  -0.5195  -0.5083  -0.4947  -0.4881  -0.4673  -0.4584  -0.3499
 -0.3432  -0.3389  -0.2825

          Ground-State Mulliken Net Atomic Charges

     Atom                 Charge (a.u.)
  ----------------------------------------
      1 C                    -0.213438
      2 C                    -0.247684
      3 C                     0.029150
      4 H                     0.184355
      5 C                    -0.025319
      6 S                     0.023021
      7 C                    -0.290803
      8 H                     0.109459
      9 H                     0.110898
     10 H                     0.113188
     11 H                     0.204780
     12 C                     0.024977
     13 C                    -0.273988
     14 C                     0.034712
     15 H                     0.188412
     16 C                    -0.244370
     17 S                     0.026581
     18 C                    -0.271498
     19 H                     0.102910
     20 H                     0.108031
     21 H                     0.108720
     22 H                     0.197908
  ----------------------------------------
  Sum of atomic charges =     0.000000

                    Cartesian Multipole Moments
 -----------------------------------------------------------------
    Charge (ESU x 10^10)
                -0.0000
    Dipole Moment (Debye)
         X      -0.8141      Y       0.2157      Z       0.4584
       Tot       0.9589
    Quadrupole Moments (Debye-Ang)
        XX     -88.5252     XY       3.5089     YY     -68.9853
        XZ       3.4953     YZ       2.3919     ZZ     -83.9248

 Total job time:  555.26s(wall), 551.53s(cpu)
        *  Thank you very much for using Q-Chem.  Have a nice day.  *
