 Q-Chem 5.4, Q-Chem, Inc., Pleasanton, CA (2021)
 Q-Chem 5.4.0 for Intel X86 EM64T Linux

User input:
--------------------------------------------------------------
$molecule
0 1
C	-0.497696	-3.866725	-0.594240
C	0.393981	-3.703963	0.469057
C	0.685571	-2.357056	0.817136
H	0.837848	-4.561092	0.997777
C	-0.000000	-1.440664	-0.000000
S	-0.992782	-2.286957	-1.183137
C	1.620802	-1.978743	1.932056
H	2.035506	-2.878678	2.426166
H	1.109943	-1.376015	2.711806
H	2.477350	-1.375728	1.564678
H	-0.883271	-4.783437	-1.054110
C	0.000000	0.000000	0.000000
C	0.075300	0.860311	1.099446
C	0.195935	2.238951	0.776721
H	0.043151	0.492916	2.136088
C	0.215188	2.458766	-0.612546
S	0.082160	0.938811	-1.486809
C	0.290762	3.322559	1.814609
H	0.253664	2.898542	2.836676
H	-0.541206	4.052140	1.726239
H	1.236797	3.896558	1.726228
H	0.297938	3.404370	-1.161575
$end

$rem
JOBTYPE		SP
EXCHANGE	HF
CORRELATION	pRIMP2
BASIS		cc-pvtz
METHOD		rimp2
AUX_BASIS	rimp2-cc-pvtz
SOLVENT_METHOD	PCM
PURECART	11111
SYMMETRY	false
MEM_TOTAL	110000
SCF_CONVERGENCE = 6
THRESH=10
$end

$solvent
dielectric 4.90
$end
--------------------------------------------------------------

             Standard Nuclear Orientation (Angstroms)
    I     Atom           X                Y                Z
 ----------------------------------------------------------------
    1      C      -0.4976960000    -3.8667250000    -0.5942400000
    2      C       0.3939810000    -3.7039630000     0.4690570000
    3      C       0.6855710000    -2.3570560000     0.8171360000
    4      H       0.8378480000    -4.5610920000     0.9977770000
    5      C       0.0000000000    -1.4406640000     0.0000000000
    6      S      -0.9927820000    -2.2869570000    -1.1831370000
    7      C       1.6208020000    -1.9787430000     1.9320560000
    8      H       2.0355060000    -2.8786780000     2.4261660000
    9      H       1.1099430000    -1.3760150000     2.7118060000
   10      H       2.4773500000    -1.3757280000     1.5646780000
   11      H      -0.8832710000    -4.7834370000    -1.0541100000
   12      C       0.0000000000     0.0000000000     0.0000000000
   13      C       0.0753000000     0.8603110000     1.0994460000
   14      C       0.1959350000     2.2389510000     0.7767210000
   15      H       0.0431510000     0.4929160000     2.1360880000
   16      C       0.2151880000     2.4587660000    -0.6125460000
   17      S       0.0821600000     0.9388110000    -1.4868090000
   18      C       0.2907620000     3.3225590000     1.8146090000
   19      H       0.2536640000     2.8985420000     2.8366760000
   20      H      -0.5412060000     4.0521400000     1.7262390000
   21      H       1.2367970000     3.8965580000     1.7262280000
   22      H       0.2979380000     3.4043700000    -1.1615750000
 ----------------------------------------------------------------

   10   -1179.6862519844      5.24e-07  Convergence criterion met
 Total energy in the final basis set =    -1179.6862519844
        RIMP2         total energy =     -1181.6653443687 a.u.

                    Orbital Energies (a.u.)
 --------------------------------------------------------------

 Alpha MOs
 -- Occupied --
-91.9861 -91.9850 -11.2817 -11.2764 -11.2726 -11.2640 -11.2541 -11.2519
-11.2433 -11.2408 -11.2301 -11.2293  -8.9856  -8.9849  -6.6665  -6.6660
 -6.6658  -6.6654  -6.6652  -6.6646  -1.1803  -1.1501  -1.0412  -1.0255
 -0.9963  -0.9559  -0.9135  -0.8936  -0.8024  -0.7550  -0.7293  -0.6983
 -0.6623  -0.6151  -0.5870  -0.5808  -0.5703  -0.5647  -0.5521  -0.5369
 -0.5295  -0.5222  -0.5065  -0.4913  -0.4880  -0.4720  -0.4567  -0.3576
 -0.3431  -0.3399  -0.2776

          Ground-State Mulliken Net Atomic Charges

     Atom                 Charge (a.u.)
  ----------------------------------------
      1 C                    -0.214734
      2 C                    -0.248420
      3 C                     0.049977
      4 H                     0.184419
      5 C                    -0.034626
      6 S                     0.017485
      7 C                    -0.292021
      8 H                     0.112894
      9 H                     0.106902
     10 H                     0.115305
     11 H                     0.205603
     12 C                     0.008823
     13 C                    -0.251497
     14 C                     0.027287
     15 H                     0.193021
     16 C                    -0.247809
     17 S                     0.021269
     18 C                    -0.271787
     19 H                     0.102061
     20 H                     0.108875
     21 H                     0.108516
     22 H                     0.198458
  ----------------------------------------
  Sum of atomic charges =     0.000000

                    Cartesian Multipole Moments
 -----------------------------------------------------------------
    Charge (ESU x 10^10)
                -0.0000
    Dipole Moment (Debye)
         X       1.1364      Y       0.1768      Z       2.6038
       Tot       2.8465
    Quadrupole Moments (Debye-Ang)
        XX     -89.9417     XY      -0.3821     YY     -68.5109
        XZ       3.3415     YZ      -0.6051     ZZ     -82.8772

 Total job time:  558.17s(wall), 552.95s(cpu)
        *  Thank you very much for using Q-Chem.  Have a nice day.  *
