 Q-Chem 5.4, Q-Chem, Inc., Pleasanton, CA (2021)
 Q-Chem 5.4.0 for Intel X86 EM64T Linux

User input:
--------------------------------------------------------------
$molecule
0 1
C	-0.671636	-3.866725	0.386946
C	0.530345	-3.703963	-0.306544
C	0.923770	-2.357056	-0.533261
H	1.128109	-4.561092	-0.651857
C	0.000000	-1.440664	0.000000
S	-1.337557	-2.286957	0.772250
C	2.184153	-1.978743	-1.260680
H	2.742769	-2.878678	-1.583283
H	2.863347	-1.376015	-0.622180
H	1.971094	-1.375728	-2.168011
H	-1.191474	-4.783437	0.686807
C	0.000000	0.000000	0.000000
C	0.747916	0.431772	1.099446
C	1.946425	1.123709	0.776721
H	0.428523	0.247378	2.136088
C	2.137531	1.234018	-0.612546
S	0.816154	0.471179	-1.486809
C	2.888455	1.667564	1.814609
H	2.519842	1.454746	2.836676
H	3.008896	2.767543	1.726239
H	3.901271	1.221850	1.726228
H	2.959587	1.708609	-1.161575
$end

$rem
JOBTYPE		SP
EXCHANGE	HF
CORRELATION	pRIMP2
BASIS		cc-pvtz
METHOD		rimp2
AUX_BASIS	rimp2-cc-pvtz
SOLVENT_METHOD	PCM
PURECART	11111
SYMMETRY	false
MEM_TOTAL	110000
SCF_CONVERGENCE = 6
THRESH=10
$end

$solvent
dielectric 4.90
$end
--------------------------------------------------------------

             Standard Nuclear Orientation (Angstroms)
    I     Atom           X                Y                Z
 ----------------------------------------------------------------
    1      C      -0.6716360000    -3.8667250000     0.3869460000
    2      C       0.5303450000    -3.7039630000    -0.3065440000
    3      C       0.9237700000    -2.3570560000    -0.5332610000
    4      H       1.1281090000    -4.5610920000    -0.6518570000
    5      C       0.0000000000    -1.4406640000     0.0000000000
    6      S      -1.3375570000    -2.2869570000     0.7722500000
    7      C       2.1841530000    -1.9787430000    -1.2606800000
    8      H       2.7427690000    -2.8786780000    -1.5832830000
    9      H       2.8633470000    -1.3760150000    -0.6221800000
   10      H       1.9710940000    -1.3757280000    -2.1680110000
   11      H      -1.1914740000    -4.7834370000     0.6868070000
   12      C       0.0000000000     0.0000000000     0.0000000000
   13      C       0.7479160000     0.4317720000     1.0994460000
   14      C       1.9464250000     1.1237090000     0.7767210000
   15      H       0.4285230000     0.2473780000     2.1360880000
   16      C       2.1375310000     1.2340180000    -0.6125460000
   17      S       0.8161540000     0.4711790000    -1.4868090000
   18      C       2.8884550000     1.6675640000     1.8146090000
   19      H       2.5198420000     1.4547460000     2.8366760000
   20      H       3.0088960000     2.7675430000     1.7262390000
   21      H       3.9012710000     1.2218500000     1.7262280000
   22      H       2.9595870000     1.7086090000    -1.1615750000
 ----------------------------------------------------------------

   11   -1179.5973243479      4.99e-07  Convergence criterion met
 Total energy in the final basis set =    -1179.5973243479
        RIMP2         total energy =     -1181.5991644513 a.u.

                    Orbital Energies (a.u.)
 --------------------------------------------------------------

 Alpha MOs
 -- Occupied --
-91.9809 -91.9731 -11.2898 -11.2777 -11.2672 -11.2577 -11.2547 -11.2522
-11.2370 -11.2358 -11.2320 -11.2181  -8.9821  -8.9733  -6.6627  -6.6619
 -6.6619  -6.6543  -6.6537  -6.6531  -1.1927  -1.1443  -1.0473  -1.0190
 -0.9998  -0.9520  -0.9112  -0.8910  -0.7943  -0.7582  -0.7343  -0.6946
 -0.6542  -0.6214  -0.5881  -0.5834  -0.5749  -0.5661  -0.5484  -0.5400
 -0.5247  -0.5219  -0.5121  -0.4910  -0.4645  -0.4587  -0.4393  -0.3559
 -0.3356  -0.3265  -0.2773

          Ground-State Mulliken Net Atomic Charges

     Atom                 Charge (a.u.)
  ----------------------------------------
      1 C                    -0.231963
      2 C                    -0.259279
      3 C                     0.022954
      4 H                     0.182157
      5 C                     0.016724
      6 S                    -0.013468
      7 C                    -0.310974
      8 H                     0.108095
      9 H                     0.113630
     10 H                     0.121122
     11 H                     0.198790
     12 C                    -0.156890
     13 C                    -0.087694
     14 C                    -0.029180
     15 H                     0.193408
     16 C                    -0.164036
     17 S                     0.043645
     18 C                    -0.267158
     19 H                     0.104019
     20 H                     0.109036
     21 H                     0.105221
     22 H                     0.201842
  ----------------------------------------
  Sum of atomic charges =     0.000000

                    Cartesian Multipole Moments
 -----------------------------------------------------------------
    Charge (ESU x 10^10)
                -0.0000
    Dipole Moment (Debye)
         X       4.3427      Y       1.1464      Z       0.7357
       Tot       4.5513
    Quadrupole Moments (Debye-Ang)
        XX     -78.8113     XY       3.8200     YY     -81.9035
        XZ      -2.1137     YZ       1.8487     ZZ     -83.8497

 Total job time:  664.57s(wall), 660.20s(cpu)
        *  Thank you very much for using Q-Chem.  Have a nice day.  *
