 Q-Chem 5.4, Q-Chem, Inc., Pleasanton, CA (2021)
 Q-Chem 5.4.0 for Intel X86 EM64T Linux

User input:
--------------------------------------------------------------
$molecule
0 1
C	-0.594240	-3.866725	0.497696
C	0.469057	-3.703963	-0.393981
C	0.817136	-2.357056	-0.685571
H	0.997777	-4.561092	-0.837848
C	-0.000000	-1.440664	-0.000000
S	-1.183137	-2.286957	0.992782
C	1.932056	-1.978743	-1.620802
H	2.426166	-2.878678	-2.035506
H	2.711806	-1.376015	-1.109943
H	1.564678	-1.375728	-2.477350
H	-1.054110	-4.783437	0.883271
C	0.000000	0.000000	0.000000
C	0.075300	0.860311	1.099446
C	0.195935	2.238951	0.776721
H	0.043151	0.492916	2.136088
C	0.215188	2.458766	-0.612546
S	0.082160	0.938811	-1.486809
C	0.290762	3.322559	1.814609
H	0.253664	2.898542	2.836676
H	-0.541206	4.052140	1.726239
H	1.236797	3.896558	1.726228
H	0.297938	3.404370	-1.161575
$end

$rem
JOBTYPE		SP
EXCHANGE	HF
CORRELATION	pRIMP2
BASIS		cc-pvtz
METHOD		rimp2
AUX_BASIS	rimp2-cc-pvtz
SOLVENT_METHOD	PCM
PURECART	11111
SYMMETRY	false
MEM_TOTAL	110000
SCF_CONVERGENCE = 6
THRESH=10
$end

$solvent
dielectric 4.90
$end
--------------------------------------------------------------

             Standard Nuclear Orientation (Angstroms)
    I     Atom           X                Y                Z
 ----------------------------------------------------------------
    1      C      -0.5942400000    -3.8667250000     0.4976960000
    2      C       0.4690570000    -3.7039630000    -0.3939810000
    3      C       0.8171360000    -2.3570560000    -0.6855710000
    4      H       0.9977770000    -4.5610920000    -0.8378480000
    5      C       0.0000000000    -1.4406640000     0.0000000000
    6      S      -1.1831370000    -2.2869570000     0.9927820000
    7      C       1.9320560000    -1.9787430000    -1.6208020000
    8      H       2.4261660000    -2.8786780000    -2.0355060000
    9      H       2.7118060000    -1.3760150000    -1.1099430000
   10      H       1.5646780000    -1.3757280000    -2.4773500000
   11      H      -1.0541100000    -4.7834370000     0.8832710000
   12      C       0.0000000000     0.0000000000     0.0000000000
   13      C       0.0753000000     0.8603110000     1.0994460000
   14      C       0.1959350000     2.2389510000     0.7767210000
   15      H       0.0431510000     0.4929160000     2.1360880000
   16      C       0.2151880000     2.4587660000    -0.6125460000
   17      S       0.0821600000     0.9388110000    -1.4868090000
   18      C       0.2907620000     3.3225590000     1.8146090000
   19      H       0.2536640000     2.8985420000     2.8366760000
   20      H      -0.5412060000     4.0521400000     1.7262390000
   21      H       1.2367970000     3.8965580000     1.7262280000
   22      H       0.2979380000     3.4043700000    -1.1615750000
 ----------------------------------------------------------------

   10   -1179.6858759652      5.09e-07  Convergence criterion met
 Total energy in the final basis set =    -1179.6858759652
        RIMP2         total energy =     -1181.6648365886 a.u.

                    Orbital Energies (a.u.)
 --------------------------------------------------------------

 Alpha MOs
 -- Occupied --
-91.9852 -91.9852 -11.2811 -11.2754 -11.2719 -11.2643 -11.2532 -11.2513
-11.2426 -11.2419 -11.2290 -11.2287  -8.9848  -8.9848  -6.6657  -6.6657
 -6.6652  -6.6652  -6.6646  -6.6646  -1.1796  -1.1498  -1.0409  -1.0233
 -0.9984  -0.9532  -0.9142  -0.8930  -0.8004  -0.7602  -0.7247  -0.6950
 -0.6625  -0.6162  -0.5829  -0.5779  -0.5752  -0.5697  -0.5521  -0.5331
 -0.5269  -0.5196  -0.5093  -0.4944  -0.4877  -0.4669  -0.4577  -0.3525
 -0.3426  -0.3372  -0.2823

          Ground-State Mulliken Net Atomic Charges

     Atom                 Charge (a.u.)
  ----------------------------------------
      1 C                    -0.216504
      2 C                    -0.247954
      3 C                     0.030688
      4 H                     0.184606
      5 C                    -0.025775
      6 S                     0.022865
      7 C                    -0.293148
      8 H                     0.110011
      9 H                     0.115124
     10 H                     0.112346
     11 H                     0.204794
     12 C                     0.008270
     13 C                    -0.242483
     14 C                     0.020008
     15 H                     0.187847
     16 C                    -0.239239
     17 S                     0.022298
     18 C                    -0.271185
     19 H                     0.102895
     20 H                     0.108311
     21 H                     0.108068
     22 H                     0.198157
  ----------------------------------------
  Sum of atomic charges =     0.000000

                    Cartesian Multipole Moments
 -----------------------------------------------------------------
    Charge (ESU x 10^10)
                -0.0000
    Dipole Moment (Debye)
         X       1.3280      Y       0.2455      Z       0.4338
       Tot       1.4185
    Quadrupole Moments (Debye-Ang)
        XX     -88.8228     XY      -0.6590     YY     -68.9167
        XZ      -3.2104     YZ       2.3960     ZZ     -83.9042

 Total job time:  556.30s(wall), 552.41s(cpu)
        *  Thank you very much for using Q-Chem.  Have a nice day.  *
