 Q-Chem 5.4, Q-Chem, Inc., Pleasanton, CA (2021)
 Q-Chem 5.4.0 for Intel X86 EM64T Linux

User input:
--------------------------------------------------------------
$molecule
0 1
C	-0.763475	-3.866725	0.133897
C	0.603206	-3.703963	-0.106669
C	1.050446	-2.357056	-0.185154
H	1.283024	-4.561092	-0.226709
C	0.000000	-1.440664	0.000000
S	-1.521018	-2.286957	0.268206
C	2.483610	-1.978743	-0.437628
H	3.118875	-2.878678	-0.549717
H	2.903464	-1.376015	0.394664
H	2.593726	-1.375728	-1.363110
H	-1.354522	-4.783437	0.237880
C	0.000000	0.000000	0.000000
C	0.431829	0.747884	1.099446
C	1.123799	1.946373	0.776721
H	0.247423	0.428497	2.136088
C	1.234147	2.137457	-0.612546
S	0.471221	0.816130	-1.486809
C	1.667694	2.888380	1.814609
H	1.454874	2.519768	2.836676
H	1.222009	3.901210	1.726239
H	2.767675	3.008788	1.726228
H	1.708773	2.959493	-1.161575
$end

$rem
JOBTYPE		SP
EXCHANGE	HF
CORRELATION	pRIMP2
BASIS		cc-pvtz
METHOD		rimp2
AUX_BASIS	rimp2-cc-pvtz
SOLVENT_METHOD	PCM
PURECART	11111
SYMMETRY	false
MEM_TOTAL	110000
SCF_CONVERGENCE = 6
THRESH=10
$end

$solvent
dielectric 4.90
$end
--------------------------------------------------------------

             Standard Nuclear Orientation (Angstroms)
    I     Atom           X                Y                Z
 ----------------------------------------------------------------
    1      C      -0.7634750000    -3.8667250000     0.1338970000
    2      C       0.6032060000    -3.7039630000    -0.1066690000
    3      C       1.0504460000    -2.3570560000    -0.1851540000
    4      H       1.2830240000    -4.5610920000    -0.2267090000
    5      C       0.0000000000    -1.4406640000     0.0000000000
    6      S      -1.5210180000    -2.2869570000     0.2682060000
    7      C       2.4836100000    -1.9787430000    -0.4376280000
    8      H       3.1188750000    -2.8786780000    -0.5497170000
    9      H       2.9034640000    -1.3760150000     0.3946640000
   10      H       2.5937260000    -1.3757280000    -1.3631100000
   11      H      -1.3545220000    -4.7834370000     0.2378800000
   12      C       0.0000000000     0.0000000000     0.0000000000
   13      C       0.4318290000     0.7478840000     1.0994460000
   14      C       1.1237990000     1.9463730000     0.7767210000
   15      H       0.2474230000     0.4284970000     2.1360880000
   16      C       1.2341470000     2.1374570000    -0.6125460000
   17      S       0.4712210000     0.8161300000    -1.4868090000
   18      C       1.6676940000     2.8883800000     1.8146090000
   19      H       1.4548740000     2.5197680000     2.8366760000
   20      H       1.2220090000     3.9012100000     1.7262390000
   21      H       2.7676750000     3.0087880000     1.7262280000
   22      H       1.7087730000     2.9594930000    -1.1615750000
 ----------------------------------------------------------------

   10   -1179.6682516743      5.94e-07  Convergence criterion met
 Total energy in the final basis set =    -1179.6682516743
        RIMP2         total energy =     -1181.6520089574 a.u.

                    Orbital Energies (a.u.)
 --------------------------------------------------------------

 Alpha MOs
 -- Occupied --
-91.9849 -91.9808 -11.2732 -11.2716 -11.2714 -11.2685 -11.2519 -11.2503
-11.2486 -11.2405 -11.2298 -11.2271  -8.9845  -8.9806  -6.6654  -6.6648
 -6.6643  -6.6615  -6.6609  -6.6604  -1.1802  -1.1486  -1.0414  -1.0203
 -0.9980  -0.9537  -0.9127  -0.8916  -0.7982  -0.7540  -0.7318  -0.6953
 -0.6599  -0.6169  -0.5812  -0.5800  -0.5729  -0.5694  -0.5509  -0.5315
 -0.5282  -0.5206  -0.5112  -0.4910  -0.4787  -0.4650  -0.4575  -0.3466
 -0.3402  -0.3185  -0.3011

          Ground-State Mulliken Net Atomic Charges

     Atom                 Charge (a.u.)
  ----------------------------------------
      1 C                    -0.217000
      2 C                    -0.251287
      3 C                     0.065044
      4 H                     0.183561
      5 C                    -0.027084
      6 S                     0.019721
      7 C                    -0.285759
      8 H                     0.110325
      9 H                     0.110062
     10 H                     0.112010
     11 H                     0.202660
     12 C                    -0.063877
     13 C                    -0.223039
     14 C                     0.026692
     15 H                     0.186388
     16 C                    -0.225343
     17 S                     0.028890
     18 C                    -0.269171
     19 H                     0.103115
     20 H                     0.108154
     21 H                     0.107157
     22 H                     0.198783
  ----------------------------------------
  Sum of atomic charges =     0.000000

                    Cartesian Multipole Moments
 -----------------------------------------------------------------
    Charge (ESU x 10^10)
                -0.0000
    Dipole Moment (Debye)
         X       2.6569      Y       0.5965      Z       1.2245
       Tot       2.9857
    Quadrupole Moments (Debye-Ang)
        XX     -83.8466     XY       2.7167     YY     -72.3991
        XZ      -0.6643     YZ       1.2738     ZZ     -86.2750

 Total job time:  569.18s(wall), 565.51s(cpu)
        *  Thank you very much for using Q-Chem.  Have a nice day.  *
