 Q-Chem 5.4, Q-Chem, Inc., Pleasanton, CA (2021)
 Q-Chem 5.4.0 for Intel X86 EM64T Linux

User input:
--------------------------------------------------------------
$molecule
0 1
C	0.264439	-3.866725	0.728625
C	-0.209794	-3.703963	-0.575519
C	-0.364749	-2.357056	-1.002336
H	-0.446060	-4.561092	-1.224165
C	-0.000000	-1.440664	-0.000000
S	0.528253	-2.286957	1.451336
C	-0.862253	-1.978743	-2.369885
H	-1.082953	-2.878678	-2.976034
H	-0.115513	-1.376015	-2.927887
H	-1.792797	-1.375728	-2.317620
H	0.469476	-4.783437	1.292636
C	0.000000	0.000000	0.000000
C	0.149995	0.850475	1.099446
C	0.390327	2.213354	0.776721
H	0.085947	0.487279	2.136088
C	0.428665	2.430655	-0.612546
S	0.163670	0.928078	-1.486809
C	0.579235	3.284574	1.814609
H	0.505323	2.865404	2.836676
H	-0.185980	4.083890	1.726239
H	1.571698	3.773937	1.726228
H	0.593515	3.365448	-1.161575
$end

$rem
JOBTYPE		SP
EXCHANGE	HF
CORRELATION	pRIMP2
BASIS		cc-pvtz
METHOD		rimp2
AUX_BASIS	rimp2-cc-pvtz
SOLVENT_METHOD	PCM
PURECART	11111
SYMMETRY	false
MEM_TOTAL	110000
SCF_CONVERGENCE = 6
THRESH=10
$end

$solvent
dielectric 4.90
$end
--------------------------------------------------------------

             Standard Nuclear Orientation (Angstroms)
    I     Atom           X                Y                Z
 ----------------------------------------------------------------
    1      C       0.2644390000    -3.8667250000     0.7286250000
    2      C      -0.2097940000    -3.7039630000    -0.5755190000
    3      C      -0.3647490000    -2.3570560000    -1.0023360000
    4      H      -0.4460600000    -4.5610920000    -1.2241650000
    5      C       0.0000000000    -1.4406640000     0.0000000000
    6      S       0.5282530000    -2.2869570000     1.4513360000
    7      C      -0.8622530000    -1.9787430000    -2.3698850000
    8      H      -1.0829530000    -2.8786780000    -2.9760340000
    9      H      -0.1155130000    -1.3760150000    -2.9278870000
   10      H      -1.7927970000    -1.3757280000    -2.3176200000
   11      H       0.4694760000    -4.7834370000     1.2926360000
   12      C       0.0000000000     0.0000000000     0.0000000000
   13      C       0.1499950000     0.8504750000     1.0994460000
   14      C       0.3903270000     2.2133540000     0.7767210000
   15      H       0.0859470000     0.4872790000     2.1360880000
   16      C       0.4286650000     2.4306550000    -0.6125460000
   17      S       0.1636700000     0.9280780000    -1.4868090000
   18      C       0.5792350000     3.2845740000     1.8146090000
   19      H       0.5053230000     2.8654040000     2.8366760000
   20      H      -0.1859800000     4.0838900000     1.7262390000
   21      H       1.5716980000     3.7739370000     1.7262280000
   22      H       0.5935150000     3.3654480000    -1.1615750000
 ----------------------------------------------------------------

   10   -1179.6853550545      5.44e-07  Convergence criterion met
 Total energy in the final basis set =    -1179.6853550545
        RIMP2         total energy =     -1181.6656955504 a.u.

                    Orbital Energies (a.u.)
 --------------------------------------------------------------

 Alpha MOs
 -- Occupied --
-91.9852 -91.9851 -11.2834 -11.2776 -11.2726 -11.2630 -11.2536 -11.2523
-11.2434 -11.2404 -11.2304 -11.2289  -8.9850  -8.9849  -6.6659  -6.6659
 -6.6653  -6.6653  -6.6647  -6.6647  -1.1813  -1.1501  -1.0421  -1.0255
 -0.9991  -0.9524  -0.9153  -0.8947  -0.8007  -0.7648  -0.7205  -0.6955
 -0.6634  -0.6160  -0.5844  -0.5808  -0.5776  -0.5698  -0.5530  -0.5344
 -0.5243  -0.5205  -0.5107  -0.4963  -0.4898  -0.4679  -0.4525  -0.3673
 -0.3433  -0.3409  -0.2704

          Ground-State Mulliken Net Atomic Charges

     Atom                 Charge (a.u.)
  ----------------------------------------
      1 C                    -0.212375
      2 C                    -0.252316
      3 C                     0.043482
      4 H                     0.184738
      5 C                    -0.021064
      6 S                     0.010854
      7 C                    -0.316024
      8 H                     0.115267
      9 H                     0.112399
     10 H                     0.120000
     11 H                     0.206736
     12 C                     0.062410
     13 C                    -0.295479
     14 C                     0.045400
     15 H                     0.179286
     16 C                    -0.258500
     17 S                     0.027743
     18 C                    -0.271104
     19 H                     0.102915
     20 H                     0.108213
     21 H                     0.109161
     22 H                     0.198258
  ----------------------------------------
  Sum of atomic charges =     0.000000

                    Cartesian Multipole Moments
 -----------------------------------------------------------------
    Charge (ESU x 10^10)
                -0.0000
    Dipole Moment (Debye)
         X      -0.2100      Y       0.0929      Z      -0.0488
       Tot       0.2348
    Quadrupole Moments (Debye-Ang)
        XX     -91.6479     XY       2.6471     YY     -68.8436
        XZ       2.3960     YZ       3.1717     ZZ     -80.6461

 Total job time:  593.76s(wall), 590.34s(cpu)
        *  Thank you very much for using Q-Chem.  Have a nice day.  *
