 Q-Chem 5.4, Q-Chem, Inc., Pleasanton, CA (2021)
 Q-Chem 5.4.0 for Intel X86 EM64T Linux

User input:
--------------------------------------------------------------
$molecule
0 1
C	0.670748	-3.808105	0.775127
C	0.642889	-3.647744	-0.612565
C	0.409365	-2.321236	-1.066639
H	0.791563	-4.491881	-1.302900
C	0.250169	-1.418777	0.000000
S	0.397135	-2.252211	1.544483
C	0.343896	-1.948630	-2.521872
H	0.500095	-2.834906	-3.166949
H	1.118228	-1.200068	-2.790821
H	-0.639561	-1.509723	-2.791023
H	0.829705	-4.710930	1.375251
C	0.000000	0.000000	0.000000
C	0.555137	0.661535	1.099446
C	1.444710	1.721658	0.776721
H	0.318072	0.379023	2.136088
C	1.586563	1.890676	-0.612546
S	0.605781	0.721904	-1.486809
C	2.143920	2.554907	1.814609
H	1.870325	2.228851	2.836676
H	1.880882	3.629742	1.726239
H	3.248098	2.482476	1.726228
H	2.196723	2.617806	-1.161575
$end

$rem
JOBTYPE		SP
EXCHANGE	HF
CORRELATION	pRIMP2
BASIS		cc-pvtz
METHOD		rimp2
AUX_BASIS	rimp2-cc-pvtz
SOLVENT_METHOD	PCM
PURECART	11111
SYMMETRY	false
MEM_TOTAL	110000
SCF_CONVERGENCE = 6
THRESH=10
$end

$solvent
dielectric 4.90
$end
--------------------------------------------------------------

             Standard Nuclear Orientation (Angstroms)
    I     Atom           X                Y                Z
 ----------------------------------------------------------------
    1      C       0.6707480000    -3.8081050000     0.7751270000
    2      C       0.6428890000    -3.6477440000    -0.6125650000
    3      C       0.4093650000    -2.3212360000    -1.0666390000
    4      H       0.7915630000    -4.4918810000    -1.3029000000
    5      C       0.2501690000    -1.4187770000     0.0000000000
    6      S       0.3971350000    -2.2522110000     1.5444830000
    7      C       0.3438960000    -1.9486300000    -2.5218720000
    8      H       0.5000950000    -2.8349060000    -3.1669490000
    9      H       1.1182280000    -1.2000680000    -2.7908210000
   10      H      -0.6395610000    -1.5097230000    -2.7910230000
   11      H       0.8297050000    -4.7109300000     1.3752510000
   12      C       0.0000000000     0.0000000000     0.0000000000
   13      C       0.5551370000     0.6615350000     1.0994460000
   14      C       1.4447100000     1.7216580000     0.7767210000
   15      H       0.3180720000     0.3790230000     2.1360880000
   16      C       1.5865630000     1.8906760000    -0.6125460000
   17      S       0.6057810000     0.7219040000    -1.4868090000
   18      C       2.1439200000     2.5549070000     1.8146090000
   19      H       1.8703250000     2.2288510000     2.8366760000
   20      H       1.8808820000     3.6297420000     1.7262390000
   21      H       3.2480980000     2.4824760000     1.7262280000
   22      H       2.1967230000     2.6178060000    -1.1615750000
 ----------------------------------------------------------------

   11   -1179.6273962479      5.89e-07  Convergence criterion met
 Total energy in the final basis set =    -1179.6273962479
        RIMP2         total energy =     -1181.6223387569 a.u.

                    Orbital Energies (a.u.)
 --------------------------------------------------------------

 Alpha MOs
 -- Occupied --
-91.9834 -91.9763 -11.2817 -11.2795 -11.2669 -11.2601 -11.2576 -11.2545
-11.2392 -11.2381 -11.2308 -11.2234  -8.9842  -8.9767  -6.6649  -6.6642
 -6.6637  -6.6577  -6.6571  -6.6565  -1.1892  -1.1465  -1.0462  -1.0234
 -0.9997  -0.9496  -0.9124  -0.8951  -0.7961  -0.7671  -0.7233  -0.6933
 -0.6569  -0.6188  -0.5888  -0.5840  -0.5770  -0.5699  -0.5512  -0.5343
 -0.5255  -0.5195  -0.5119  -0.4946  -0.4740  -0.4616  -0.4437  -0.3701
 -0.3424  -0.3363  -0.2619

          Ground-State Mulliken Net Atomic Charges

     Atom                 Charge (a.u.)
  ----------------------------------------
      1 C                    -0.236251
      2 C                    -0.247758
      3 C                     0.030457
      4 H                     0.182539
      5 C                    -0.015537
      6 S                    -0.018852
      7 C                    -0.308429
      8 H                     0.108788
      9 H                     0.115252
     10 H                     0.112059
     11 H                     0.202087
     12 C                    -0.047100
     13 C                    -0.168001
     14 C                     0.008491
     15 H                     0.184808
     16 C                    -0.207667
     17 S                     0.050058
     18 C                    -0.265538
     19 H                     0.103477
     20 H                     0.108310
     21 H                     0.107184
     22 H                     0.201623
  ----------------------------------------
  Sum of atomic charges =     0.000000

                    Cartesian Multipole Moments
 -----------------------------------------------------------------
    Charge (ESU x 10^10)
                -0.0000
    Dipole Moment (Debye)
         X       2.0702      Y       1.5195      Z      -0.1288
       Tot       2.5712
    Quadrupole Moments (Debye-Ang)
        XX     -87.1437     XY       4.4607     YY     -76.7603
        XZ      -0.2542     YZ       3.0723     ZZ     -79.8532

 Total job time:  629.90s(wall), 625.35s(cpu)
        *  Thank you very much for using Q-Chem.  Have a nice day.  *
