 Q-Chem 5.4, Q-Chem, Inc., Pleasanton, CA (2021)
 Q-Chem 5.4.0 for Intel X86 EM64T Linux

User input:
--------------------------------------------------------------
$molecule
0 1
C	0.671636	-3.866725	-0.386946
C	-0.530345	-3.703963	0.306544
C	-0.923770	-2.357056	0.533261
H	-1.128109	-4.561092	0.651857
C	0.000000	-1.440664	0.000000
S	1.337557	-2.286957	-0.772250
C	-2.184153	-1.978743	1.260680
H	-2.742769	-2.878678	1.583283
H	-2.863347	-1.376015	0.622180
H	-1.971094	-1.375728	2.168011
H	1.191474	-4.783437	-0.686807
C	0.000000	0.000000	0.000000
C	0.747916	0.431772	1.099446
C	1.946425	1.123709	0.776721
H	0.428523	0.247378	2.136088
C	2.137531	1.234018	-0.612546
S	0.816154	0.471179	-1.486809
C	2.888455	1.667564	1.814609
H	2.519842	1.454746	2.836676
H	3.008896	2.767543	1.726239
H	3.901271	1.221850	1.726228
H	2.959587	1.708609	-1.161575
$end

$rem
JOBTYPE		SP
EXCHANGE	HF
CORRELATION	pRIMP2
BASIS		cc-pvtz
METHOD		rimp2
AUX_BASIS	rimp2-cc-pvtz
SOLVENT_METHOD	PCM
PURECART	11111
SYMMETRY	false
MEM_TOTAL	110000
SCF_CONVERGENCE = 6
THRESH=10
$end

$solvent
dielectric 4.90
$end
--------------------------------------------------------------

             Standard Nuclear Orientation (Angstroms)
    I     Atom           X                Y                Z
 ----------------------------------------------------------------
    1      C       0.6716360000    -3.8667250000    -0.3869460000
    2      C      -0.5303450000    -3.7039630000     0.3065440000
    3      C      -0.9237700000    -2.3570560000     0.5332610000
    4      H      -1.1281090000    -4.5610920000     0.6518570000
    5      C       0.0000000000    -1.4406640000     0.0000000000
    6      S       1.3375570000    -2.2869570000    -0.7722500000
    7      C      -2.1841530000    -1.9787430000     1.2606800000
    8      H      -2.7427690000    -2.8786780000     1.5832830000
    9      H      -2.8633470000    -1.3760150000     0.6221800000
   10      H      -1.9710940000    -1.3757280000     2.1680110000
   11      H       1.1914740000    -4.7834370000    -0.6868070000
   12      C       0.0000000000     0.0000000000     0.0000000000
   13      C       0.7479160000     0.4317720000     1.0994460000
   14      C       1.9464250000     1.1237090000     0.7767210000
   15      H       0.4285230000     0.2473780000     2.1360880000
   16      C       2.1375310000     1.2340180000    -0.6125460000
   17      S       0.8161540000     0.4711790000    -1.4868090000
   18      C       2.8884550000     1.6675640000     1.8146090000
   19      H       2.5198420000     1.4547460000     2.8366760000
   20      H       3.0088960000     2.7675430000     1.7262390000
   21      H       3.9012710000     1.2218500000     1.7262280000
   22      H       2.9595870000     1.7086090000    -1.1615750000
 ----------------------------------------------------------------

   10   -1179.6110668919      9.31e-07  Convergence criterion met
 Total energy in the final basis set =    -1179.6110668919
        RIMP2         total energy =     -1181.6062553064 a.u.

                    Orbital Energies (a.u.)
 --------------------------------------------------------------

 Alpha MOs
 -- Occupied --
-91.9844 -91.9735 -11.2923 -11.2734 -11.2680 -11.2561 -11.2547 -11.2535
-11.2345 -11.2330 -11.2316 -11.2241  -8.9853  -8.9738  -6.6660  -6.6652
 -6.6650  -6.6547  -6.6540  -6.6534  -1.1935  -1.1436  -1.0474  -1.0172
 -0.9997  -0.9529  -0.9090  -0.8904  -0.7997  -0.7494  -0.7390  -0.6918
 -0.6539  -0.6222  -0.5897  -0.5792  -0.5677  -0.5661  -0.5481  -0.5360
 -0.5337  -0.5158  -0.5065  -0.4888  -0.4772  -0.4577  -0.4494  -0.3644
 -0.3391  -0.3181  -0.2766

          Ground-State Mulliken Net Atomic Charges

     Atom                 Charge (a.u.)
  ----------------------------------------
      1 C                    -0.254842
      2 C                    -0.240935
      3 C                     0.007354
      4 H                     0.179314
      5 C                    -0.016854
      6 S                     0.015918
      7 C                    -0.286817
      8 H                     0.104804
      9 H                     0.106336
     10 H                     0.102488
     11 H                     0.199517
     12 C                    -0.126537
     13 C                    -0.083678
     14 C                    -0.020370
     15 H                     0.194085
     16 C                    -0.168163
     17 S                     0.034407
     18 C                    -0.266986
     19 H                     0.103260
     20 H                     0.107922
     21 H                     0.106503
     22 H                     0.203274
  ----------------------------------------
  Sum of atomic charges =     0.000000

                    Cartesian Multipole Moments
 -----------------------------------------------------------------
    Charge (ESU x 10^10)
                -0.0000
    Dipole Moment (Debye)
         X       1.8343      Y       1.3007      Z       2.2316
       Tot       3.1680
    Quadrupole Moments (Debye-Ang)
        XX     -78.5821     XY       7.6717     YY     -81.6471
        XZ      -2.0056     YZ      -0.6897     ZZ     -83.9555

 Total job time:  587.28s(wall), 582.80s(cpu)
        *  Thank you very much for using Q-Chem.  Have a nice day.  *
