 Q-Chem 5.4, Q-Chem, Inc., Pleasanton, CA (2021)
 Q-Chem 5.4.0 for Intel X86 EM64T Linux

User input:
--------------------------------------------------------------
$molecule
0 1
C	0.135301	-3.866725	-0.763228
C	-0.106073	-3.703963	0.603311
C	-0.185286	-2.357056	1.050423
H	-0.225783	-4.561092	1.283188
C	0.000000	-1.440664	0.000000
S	0.268187	-2.286957	-1.521021
C	-0.438209	-1.978743	2.483507
H	-0.550153	-2.878678	3.118798
H	-1.363906	-1.376015	2.593381
H	0.393798	-1.375728	2.903516
H	0.239740	-4.783437	-1.354194
C	0.000000	0.000000	0.000000
C	0.661577	0.555087	1.099446
C	1.721724	1.444630	0.776721
H	0.379056	0.318032	2.136088
C	1.890772	1.586449	-0.612546
S	0.721935	0.605744	-1.486809
C	2.555004	2.143805	1.814609
H	2.228946	1.870211	2.836676
H	2.482605	3.247987	1.726239
H	3.629830	1.880735	1.726228
H	2.617927	2.196579	-1.161575
$end

$rem
JOBTYPE		SP
EXCHANGE	HF
CORRELATION	pRIMP2
BASIS		cc-pvtz
METHOD		rimp2
AUX_BASIS	rimp2-cc-pvtz
SOLVENT_METHOD	PCM
PURECART	11111
SYMMETRY	false
MEM_TOTAL	110000
SCF_CONVERGENCE = 6
THRESH=10
$end

$solvent
dielectric 4.90
$end
--------------------------------------------------------------

             Standard Nuclear Orientation (Angstroms)
    I     Atom           X                Y                Z
 ----------------------------------------------------------------
    1      C       0.1353010000    -3.8667250000    -0.7632280000
    2      C      -0.1060730000    -3.7039630000     0.6033110000
    3      C      -0.1852860000    -2.3570560000     1.0504230000
    4      H      -0.2257830000    -4.5610920000     1.2831880000
    5      C       0.0000000000    -1.4406640000     0.0000000000
    6      S       0.2681870000    -2.2869570000    -1.5210210000
    7      C      -0.4382090000    -1.9787430000     2.4835070000
    8      H      -0.5501530000    -2.8786780000     3.1187980000
    9      H      -1.3639060000    -1.3760150000     2.5933810000
   10      H       0.3937980000    -1.3757280000     2.9035160000
   11      H       0.2397400000    -4.7834370000    -1.3541940000
   12      C       0.0000000000     0.0000000000     0.0000000000
   13      C       0.6615770000     0.5550870000     1.0994460000
   14      C       1.7217240000     1.4446300000     0.7767210000
   15      H       0.3790560000     0.3180320000     2.1360880000
   16      C       1.8907720000     1.5864490000    -0.6125460000
   17      S       0.7219350000     0.6057440000    -1.4868090000
   18      C       2.5550040000     2.1438050000     1.8146090000
   19      H       2.2289460000     1.8702110000     2.8366760000
   20      H       2.4826050000     3.2479870000     1.7262390000
   21      H       3.6298300000     1.8807350000     1.7262280000
   22      H       2.6179270000     2.1965790000    -1.1615750000
 ----------------------------------------------------------------

   11   -1179.6298368148      5.22e-07  Convergence criterion met
 Total energy in the final basis set =    -1179.6298368148
        RIMP2         total energy =     -1181.6227822098 a.u.

                    Orbital Energies (a.u.)
 --------------------------------------------------------------

 Alpha MOs
 -- Occupied --
-91.9853 -91.9767 -11.2856 -11.2792 -11.2668 -11.2599 -11.2567 -11.2557
-11.2382 -11.2359 -11.2319 -11.2276  -8.9860  -8.9770  -6.6668  -6.6661
 -6.6656  -6.6579  -6.6573  -6.6566  -1.1900  -1.1464  -1.0470  -1.0240
 -0.9969  -0.9555  -0.9108  -0.8943  -0.8013  -0.7565  -0.7298  -0.7009
 -0.6551  -0.6164  -0.5971  -0.5826  -0.5707  -0.5600  -0.5504  -0.5426
 -0.5334  -0.5196  -0.5055  -0.4874  -0.4845  -0.4662  -0.4432  -0.3721
 -0.3488  -0.3298  -0.2621

          Ground-State Mulliken Net Atomic Charges

     Atom                 Charge (a.u.)
  ----------------------------------------
      1 C                    -0.252450
      2 C                    -0.242301
      3 C                     0.027949
      4 H                     0.181055
      5 C                    -0.008051
      6 S                     0.001159
      7 C                    -0.306736
      8 H                     0.113300
      9 H                     0.110990
     10 H                     0.095504
     11 H                     0.201557
     12 C                    -0.065355
     13 C                    -0.146835
     14 C                    -0.007770
     15 H                     0.200337
     16 C                    -0.185853
     17 S                     0.027042
     18 C                    -0.267181
     19 H                     0.102385
     20 H                     0.109208
     21 H                     0.107870
     22 H                     0.204177
  ----------------------------------------
  Sum of atomic charges =     0.000000

                    Cartesian Multipole Moments
 -----------------------------------------------------------------
    Charge (ESU x 10^10)
                -0.0000
    Dipole Moment (Debye)
         X       2.1455      Y       1.4234      Z       2.9308
       Tot       3.9012
    Quadrupole Moments (Debye-Ang)
        XX     -84.8676     XY       6.7102     YY     -78.9597
        XZ      -0.5249     YZ      -1.7519     ZZ     -80.2458

 Total job time:  650.98s(wall), 648.42s(cpu)
        *  Thank you very much for using Q-Chem.  Have a nice day.  *
