 Q-Chem 5.4, Q-Chem, Inc., Pleasanton, CA (2021)
 Q-Chem 5.4.0 for Intel X86 EM64T Linux

User input:
--------------------------------------------------------------
$molecule
0 1
C	0.593324	-3.866725	0.498788
C	-0.469446	-3.703963	-0.393517
C	-0.817050	-2.357056	-0.685674
H	-0.998381	-4.561092	-0.837128
C	0.000000	-1.440664	0.000000
S	1.183149	-2.286957	0.992768
C	-1.931676	-1.978743	-1.621254
H	-2.425882	-2.878678	-2.035845
H	-1.563980	-1.376015	-2.477868
H	-2.711417	-1.375728	-1.110719
H	1.052896	-4.783437	0.884718
C	0.000000	0.000000	0.000000
C	0.661577	0.555087	1.099446
C	1.721724	1.444630	0.776721
H	0.379056	0.318032	2.136088
C	1.890772	1.586449	-0.612546
S	0.721935	0.605744	-1.486809
C	2.555004	2.143805	1.814609
H	2.228946	1.870211	2.836676
H	2.482605	3.247987	1.726239
H	3.629830	1.880735	1.726228
H	2.617927	2.196579	-1.161575
$end

$rem
JOBTYPE		SP
EXCHANGE	HF
CORRELATION	pRIMP2
BASIS		cc-pvtz
METHOD		rimp2
AUX_BASIS	rimp2-cc-pvtz
SOLVENT_METHOD	PCM
PURECART	11111
SYMMETRY	false
MEM_TOTAL	110000
SCF_CONVERGENCE = 6
THRESH=10
$end

$solvent
dielectric 4.90
$end
--------------------------------------------------------------

             Standard Nuclear Orientation (Angstroms)
    I     Atom           X                Y                Z
 ----------------------------------------------------------------
    1      C       0.5933240000    -3.8667250000     0.4987880000
    2      C      -0.4694460000    -3.7039630000    -0.3935170000
    3      C      -0.8170500000    -2.3570560000    -0.6856740000
    4      H      -0.9983810000    -4.5610920000    -0.8371280000
    5      C       0.0000000000    -1.4406640000     0.0000000000
    6      S       1.1831490000    -2.2869570000     0.9927680000
    7      C      -1.9316760000    -1.9787430000    -1.6212540000
    8      H      -2.4258820000    -2.8786780000    -2.0358450000
    9      H      -1.5639800000    -1.3760150000    -2.4778680000
   10      H      -2.7114170000    -1.3757280000    -1.1107190000
   11      H       1.0528960000    -4.7834370000     0.8847180000
   12      C       0.0000000000     0.0000000000     0.0000000000
   13      C       0.6615770000     0.5550870000     1.0994460000
   14      C       1.7217240000     1.4446300000     0.7767210000
   15      H       0.3790560000     0.3180320000     2.1360880000
   16      C       1.8907720000     1.5864490000    -0.6125460000
   17      S       0.7219350000     0.6057440000    -1.4868090000
   18      C       2.5550040000     2.1438050000     1.8146090000
   19      H       2.2289460000     1.8702110000     2.8366760000
   20      H       2.4826050000     3.2479870000     1.7262390000
   21      H       3.6298300000     1.8807350000     1.7262280000
   22      H       2.6179270000     2.1965790000    -1.1615750000
 ----------------------------------------------------------------

   10   -1179.6400740576      6.37e-07  Convergence criterion met
 Total energy in the final basis set =    -1179.6400740576
        RIMP2         total energy =     -1181.6304555922 a.u.

                    Orbital Energies (a.u.)
 --------------------------------------------------------------

 Alpha MOs
 -- Occupied --
-91.9850 -91.9800 -11.2835 -11.2726 -11.2628 -11.2622 -11.2563 -11.2544
-11.2400 -11.2380 -11.2308 -11.2266  -8.9852  -8.9799  -6.6660  -6.6653
 -6.6649  -6.6607  -6.6601  -6.6595  -1.1874  -1.1467  -1.0446  -1.0197
 -1.0016  -0.9487  -0.9145  -0.8909  -0.7976  -0.7604  -0.7295  -0.6893
 -0.6579  -0.6199  -0.5858  -0.5802  -0.5726  -0.5692  -0.5499  -0.5350
 -0.5286  -0.5160  -0.5076  -0.4932  -0.4700  -0.4682  -0.4571  -0.3493
 -0.3420  -0.3375  -0.2769

          Ground-State Mulliken Net Atomic Charges

     Atom                 Charge (a.u.)
  ----------------------------------------
      1 C                    -0.239558
      2 C                    -0.239114
      3 C                     0.014560
      4 H                     0.181789
      5 C                     0.000730
      6 S                     0.014630
      7 C                    -0.292507
      8 H                     0.108442
      9 H                     0.106961
     10 H                     0.109232
     11 H                     0.201787
     12 C                    -0.072731
     13 C                    -0.233706
     14 C                     0.032443
     15 H                     0.198979
     16 C                    -0.196208
     17 S                     0.047471
     18 C                    -0.265766
     19 H                     0.103950
     20 H                     0.109025
     21 H                     0.108022
     22 H                     0.201566
  ----------------------------------------
  Sum of atomic charges =     0.000000

                    Cartesian Multipole Moments
 -----------------------------------------------------------------
    Charge (ESU x 10^10)
                -0.0000
    Dipole Moment (Debye)
         X       1.1352      Y       0.9001      Z       0.6016
       Tot       1.5686
    Quadrupole Moments (Debye-Ang)
        XX     -81.7758     XY       7.9617     YY     -77.2751
        XZ       3.5566     YZ       2.0631     ZZ     -83.5474

 Total job time:  560.87s(wall), 557.75s(cpu)
        *  Thank you very much for using Q-Chem.  Have a nice day.  *
