 Q-Chem 5.4, Q-Chem, Inc., Pleasanton, CA (2021)
 Q-Chem 5.4.0 for Intel X86 EM64T Linux

User input:
--------------------------------------------------------------
$molecule
0 1
C	0.000713	-3.866725	-0.775127
C	0.000302	-3.703963	0.612565
C	-0.000067	-2.357056	1.066639
H	0.000470	-4.561092	1.302900
C	0.000000	-1.440664	0.000000
S	-0.000009	-2.286957	-1.544483
C	-0.000295	-1.978743	2.521872
H	-0.000221	-2.878678	3.166949
H	-0.892850	-1.376015	2.790821
H	0.892005	-1.375728	2.791023
H	0.000945	-4.783437	-1.375251
C	0.000000	0.000000	0.000000
C	0.661577	0.555087	1.099446
C	1.721724	1.444630	0.776721
H	0.379056	0.318032	2.136088
C	1.890772	1.586449	-0.612546
S	0.721935	0.605744	-1.486809
C	2.555004	2.143805	1.814609
H	2.228946	1.870211	2.836676
H	2.482605	3.247987	1.726239
H	3.629830	1.880735	1.726228
H	2.617927	2.196579	-1.161575
$end

$rem
JOBTYPE		SP
EXCHANGE	HF
CORRELATION	pRIMP2
BASIS		cc-pvtz
METHOD		rimp2
AUX_BASIS	rimp2-cc-pvtz
SOLVENT_METHOD	PCM
PURECART	11111
SYMMETRY	false
MEM_TOTAL	110000
SCF_CONVERGENCE = 6
THRESH=10
$end

$solvent
dielectric 4.90
$end
--------------------------------------------------------------

             Standard Nuclear Orientation (Angstroms)
    I     Atom           X                Y                Z
 ----------------------------------------------------------------
    1      C       0.0007130000    -3.8667250000    -0.7751270000
    2      C       0.0003020000    -3.7039630000     0.6125650000
    3      C      -0.0000670000    -2.3570560000     1.0666390000
    4      H       0.0004700000    -4.5610920000     1.3029000000
    5      C       0.0000000000    -1.4406640000     0.0000000000
    6      S      -0.0000090000    -2.2869570000    -1.5444830000
    7      C      -0.0002950000    -1.9787430000     2.5218720000
    8      H      -0.0002210000    -2.8786780000     3.1669490000
    9      H      -0.8928500000    -1.3760150000     2.7908210000
   10      H       0.8920050000    -1.3757280000     2.7910230000
   11      H       0.0009450000    -4.7834370000    -1.3752510000
   12      C       0.0000000000     0.0000000000     0.0000000000
   13      C       0.6615770000     0.5550870000     1.0994460000
   14      C       1.7217240000     1.4446300000     0.7767210000
   15      H       0.3790560000     0.3180320000     2.1360880000
   16      C       1.8907720000     1.5864490000    -0.6125460000
   17      S       0.7219350000     0.6057440000    -1.4868090000
   18      C       2.5550040000     2.1438050000     1.8146090000
   19      H       2.2289460000     1.8702110000     2.8366760000
   20      H       2.4826050000     3.2479870000     1.7262390000
   21      H       3.6298300000     1.8807350000     1.7262280000
   22      H       2.6179270000     2.1965790000    -1.1615750000
 ----------------------------------------------------------------

   11   -1179.6291120331      5.37e-07  Convergence criterion met
 Total energy in the final basis set =    -1179.6291120331
        RIMP2         total energy =     -1181.6223051840 a.u.

                    Orbital Energies (a.u.)
 --------------------------------------------------------------

 Alpha MOs
 -- Occupied --
-91.9847 -91.9759 -11.2851 -11.2791 -11.2662 -11.2587 -11.2583 -11.2550
-11.2387 -11.2375 -11.2318 -11.2282  -8.9854  -8.9763  -6.6662  -6.6654
 -6.6650  -6.6573  -6.6567  -6.6560  -1.1896  -1.1466  -1.0466  -1.0252
 -0.9965  -0.9549  -0.9119  -0.8946  -0.8005  -0.7569  -0.7295  -0.7019
 -0.6551  -0.6160  -0.5972  -0.5832  -0.5707  -0.5602  -0.5505  -0.5426
 -0.5326  -0.5207  -0.5047  -0.4874  -0.4830  -0.4668  -0.4436  -0.3712
 -0.3504  -0.3296  -0.2620

          Ground-State Mulliken Net Atomic Charges

     Atom                 Charge (a.u.)
  ----------------------------------------
      1 C                    -0.244810
      2 C                    -0.245248
      3 C                     0.036038
      4 H                     0.181610
      5 C                    -0.017745
      6 S                    -0.002964
      7 C                    -0.305389
      8 H                     0.114207
      9 H                     0.107574
     10 H                     0.099915
     11 H                     0.202152
     12 C                    -0.059994
     13 C                    -0.164621
     14 C                     0.000102
     15 H                     0.201746
     16 C                    -0.188789
     17 S                     0.030536
     18 C                    -0.268477
     19 H                     0.102276
     20 H                     0.110055
     21 H                     0.108043
     22 H                     0.203785
  ----------------------------------------
  Sum of atomic charges =     0.000000

                    Cartesian Multipole Moments
 -----------------------------------------------------------------
    Charge (ESU x 10^10)
                -0.0000
    Dipole Moment (Debye)
         X       2.3611      Y       1.2984      Z       3.0106
       Tot       4.0403
    Quadrupole Moments (Debye-Ang)
        XX     -85.1006     XY       6.2473     YY     -78.6016
        XZ       0.4839     YZ      -1.8165     ZZ     -80.0647

 Total job time:  631.96s(wall), 629.12s(cpu)
        *  Thank you very much for using Q-Chem.  Have a nice day.  *
