 Q-Chem 5.4, Q-Chem, Inc., Pleasanton, CA (2021)
 Q-Chem 5.4.0 for Intel X86 EM64T Linux

User input:
--------------------------------------------------------------
$molecule
0 1
C	0.728625	-3.866725	-0.264439
C	-0.575519	-3.703963	0.209794
C	-1.002336	-2.357056	0.364749
H	-1.224165	-4.561092	0.446060
C	-0.000000	-1.440664	-0.000000
S	1.451336	-2.286957	-0.528253
C	-2.369885	-1.978743	0.862253
H	-2.976034	-2.878678	1.082953
H	-2.927887	-1.376015	0.115513
H	-2.317620	-1.375728	1.792797
H	1.292636	-4.783437	-0.469476
C	0.000000	0.000000	0.000000
C	0.149995	0.850475	1.099446
C	0.390327	2.213354	0.776721
H	0.085947	0.487279	2.136088
C	0.428665	2.430655	-0.612546
S	0.163670	0.928078	-1.486809
C	0.579235	3.284574	1.814609
H	0.505323	2.865404	2.836676
H	-0.185980	4.083890	1.726239
H	1.571698	3.773937	1.726228
H	0.593515	3.365448	-1.161575
$end

$rem
JOBTYPE		SP
EXCHANGE	HF
CORRELATION	pRIMP2
BASIS		cc-pvtz
METHOD		rimp2
AUX_BASIS	rimp2-cc-pvtz
SOLVENT_METHOD	PCM
PURECART	11111
SYMMETRY	false
MEM_TOTAL	110000
SCF_CONVERGENCE = 6
THRESH=10
$end

$solvent
dielectric 4.90
$end
--------------------------------------------------------------

             Standard Nuclear Orientation (Angstroms)
    I     Atom           X                Y                Z
 ----------------------------------------------------------------
    1      C       0.7286250000    -3.8667250000    -0.2644390000
    2      C      -0.5755190000    -3.7039630000     0.2097940000
    3      C      -1.0023360000    -2.3570560000     0.3647490000
    4      H      -1.2241650000    -4.5610920000     0.4460600000
    5      C       0.0000000000    -1.4406640000     0.0000000000
    6      S       1.4513360000    -2.2869570000    -0.5282530000
    7      C      -2.3698850000    -1.9787430000     0.8622530000
    8      H      -2.9760340000    -2.8786780000     1.0829530000
    9      H      -2.9278870000    -1.3760150000     0.1155130000
   10      H      -2.3176200000    -1.3757280000     1.7927970000
   11      H       1.2926360000    -4.7834370000    -0.4694760000
   12      C       0.0000000000     0.0000000000     0.0000000000
   13      C       0.1499950000     0.8504750000     1.0994460000
   14      C       0.3903270000     2.2133540000     0.7767210000
   15      H       0.0859470000     0.4872790000     2.1360880000
   16      C       0.4286650000     2.4306550000    -0.6125460000
   17      S       0.1636700000     0.9280780000    -1.4868090000
   18      C       0.5792350000     3.2845740000     1.8146090000
   19      H       0.5053230000     2.8654040000     2.8366760000
   20      H      -0.1859800000     4.0838900000     1.7262390000
   21      H       1.5716980000     3.7739370000     1.7262280000
   22      H       0.5935150000     3.3654480000    -1.1615750000
 ----------------------------------------------------------------

   10   -1179.6839972769      5.08e-07  Convergence criterion met
 Total energy in the final basis set =    -1179.6839972769
        RIMP2         total energy =     -1181.6622085376 a.u.

                    Orbital Energies (a.u.)
 --------------------------------------------------------------

 Alpha MOs
 -- Occupied --
-91.9857 -91.9845 -11.2787 -11.2733 -11.2721 -11.2651 -11.2532 -11.2511
-11.2426 -11.2417 -11.2294 -11.2291  -8.9851  -8.9841  -6.6660  -6.6655
 -6.6650  -6.6649  -6.6645  -6.6638  -1.1788  -1.1495  -1.0403  -1.0234
 -0.9966  -0.9547  -0.9129  -0.8925  -0.8013  -0.7525  -0.7314  -0.6953
 -0.6622  -0.6160  -0.5833  -0.5794  -0.5700  -0.5682  -0.5521  -0.5321
 -0.5303  -0.5201  -0.5076  -0.4914  -0.4870  -0.4668  -0.4614  -0.3490
 -0.3378  -0.3281  -0.2955

          Ground-State Mulliken Net Atomic Charges

     Atom                 Charge (a.u.)
  ----------------------------------------
      1 C                    -0.209771
      2 C                    -0.249766
      3 C                     0.049533
      4 H                     0.183990
      5 C                    -0.053796
      6 S                     0.024613
      7 C                    -0.282297
      8 H                     0.107664
      9 H                     0.111143
     10 H                     0.108560
     11 H                     0.204582
     12 C                    -0.007070
     13 C                    -0.226212
     14 C                     0.018523
     15 H                     0.187324
     16 C                    -0.236931
     17 S                     0.024985
     18 C                    -0.271586
     19 H                     0.102479
     20 H                     0.107844
     21 H                     0.108420
     22 H                     0.197771
  ----------------------------------------
  Sum of atomic charges =     0.000000

                    Cartesian Multipole Moments
 -----------------------------------------------------------------
    Charge (ESU x 10^10)
                -0.0000
    Dipole Moment (Debye)
         X      -1.0672      Y       0.2774      Z       1.9691
       Tot       2.2568
    Quadrupole Moments (Debye-Ang)
        XX     -86.6013     XY       3.8414     YY     -69.1207
        XZ      -1.9097     YZ       0.2550     ZZ     -85.9344

 Total job time:  568.75s(wall), 564.55s(cpu)
        *  Thank you very much for using Q-Chem.  Have a nice day.  *
