 Q-Chem 5.4, Q-Chem, Inc., Pleasanton, CA (2021)
 Q-Chem 5.4.0 for Intel X86 EM64T Linux

User input:
--------------------------------------------------------------
$molecule
0 1
C	-0.594240	-3.866725	0.497696
C	0.469057	-3.703963	-0.393981
C	0.817136	-2.357056	-0.685571
H	0.997777	-4.561092	-0.837848
C	-0.000000	-1.440664	-0.000000
S	-1.183137	-2.286957	0.992782
C	1.932056	-1.978743	-1.620802
H	2.426166	-2.878678	-2.035506
H	2.711806	-1.376015	-1.109943
H	1.564678	-1.375728	-2.477350
H	-1.054110	-4.783437	0.883271
C	0.000000	0.000000	0.000000
C	0.555137	0.661535	1.099446
C	1.444710	1.721658	0.776721
H	0.318072	0.379023	2.136088
C	1.586563	1.890676	-0.612546
S	0.605781	0.721904	-1.486809
C	2.143920	2.554907	1.814609
H	1.870325	2.228851	2.836676
H	1.880882	3.629742	1.726239
H	3.248098	2.482476	1.726228
H	2.196723	2.617806	-1.161575
$end

$rem
JOBTYPE		SP
EXCHANGE	HF
CORRELATION	pRIMP2
BASIS		cc-pvtz
METHOD		rimp2
AUX_BASIS	rimp2-cc-pvtz
SOLVENT_METHOD	PCM
PURECART	11111
SYMMETRY	false
MEM_TOTAL	110000
SCF_CONVERGENCE = 6
THRESH=10
$end

$solvent
dielectric 4.90
$end
--------------------------------------------------------------

             Standard Nuclear Orientation (Angstroms)
    I     Atom           X                Y                Z
 ----------------------------------------------------------------
    1      C      -0.5942400000    -3.8667250000     0.4976960000
    2      C       0.4690570000    -3.7039630000    -0.3939810000
    3      C       0.8171360000    -2.3570560000    -0.6855710000
    4      H       0.9977770000    -4.5610920000    -0.8378480000
    5      C       0.0000000000    -1.4406640000     0.0000000000
    6      S      -1.1831370000    -2.2869570000     0.9927820000
    7      C       1.9320560000    -1.9787430000    -1.6208020000
    8      H       2.4261660000    -2.8786780000    -2.0355060000
    9      H       2.7118060000    -1.3760150000    -1.1099430000
   10      H       1.5646780000    -1.3757280000    -2.4773500000
   11      H      -1.0541100000    -4.7834370000     0.8832710000
   12      C       0.0000000000     0.0000000000     0.0000000000
   13      C       0.5551370000     0.6615350000     1.0994460000
   14      C       1.4447100000     1.7216580000     0.7767210000
   15      H       0.3180720000     0.3790230000     2.1360880000
   16      C       1.5865630000     1.8906760000    -0.6125460000
   17      S       0.6057810000     0.7219040000    -1.4868090000
   18      C       2.1439200000     2.5549070000     1.8146090000
   19      H       1.8703250000     2.2288510000     2.8366760000
   20      H       1.8808820000     3.6297420000     1.7262390000
   21      H       3.2480980000     2.4824760000     1.7262280000
   22      H       2.1967230000     2.6178060000    -1.1615750000
 ----------------------------------------------------------------

   10   -1179.6470927698      7.29e-07  Convergence criterion met
 Total energy in the final basis set =    -1179.6470927698
        RIMP2         total energy =     -1181.6370807597 a.u.

                    Orbital Energies (a.u.)
 --------------------------------------------------------------

 Alpha MOs
 -- Occupied --
-91.9827 -91.9787 -11.2766 -11.2761 -11.2691 -11.2642 -11.2532 -11.2521
-11.2442 -11.2396 -11.2302 -11.2228  -8.9832  -8.9787  -6.6639  -6.6633
 -6.6629  -6.6597  -6.6591  -6.6585  -1.1836  -1.1474  -1.0435  -1.0193
 -0.9987  -0.9527  -0.9111  -0.8929  -0.7962  -0.7592  -0.7280  -0.6952
 -0.6575  -0.6174  -0.5830  -0.5804  -0.5748  -0.5687  -0.5500  -0.5342
 -0.5264  -0.5207  -0.5118  -0.4930  -0.4723  -0.4626  -0.4516  -0.3576
 -0.3387  -0.3318  -0.2773

          Ground-State Mulliken Net Atomic Charges

     Atom                 Charge (a.u.)
  ----------------------------------------
      1 C                    -0.222612
      2 C                    -0.254567
      3 C                     0.037846
      4 H                     0.183599
      5 C                    -0.010585
      6 S                     0.002859
      7 C                    -0.292046
      8 H                     0.105765
      9 H                     0.115283
     10 H                     0.114563
     11 H                     0.202007
     12 C                    -0.072003
     13 C                    -0.171049
     14 C                     0.001419
     15 H                     0.189372
     16 C                    -0.206727
     17 S                     0.027577
     18 C                    -0.267717
     19 H                     0.103153
     20 H                     0.107764
     21 H                     0.106600
     22 H                     0.199498
  ----------------------------------------
  Sum of atomic charges =     0.000000

                    Cartesian Multipole Moments
 -----------------------------------------------------------------
    Charge (ESU x 10^10)
                -0.0000
    Dipole Moment (Debye)
         X       2.8708      Y       0.9271      Z       0.4251
       Tot       3.0466
    Quadrupole Moments (Debye-Ang)
        XX     -84.3465     XY       4.2300     YY     -75.7959
        XZ      -2.6020     YZ       2.1431     ZZ     -83.4929

 Total job time:  588.74s(wall), 585.54s(cpu)
        *  Thank you very much for using Q-Chem.  Have a nice day.  *
