 Q-Chem 5.4, Q-Chem, Inc., Pleasanton, CA (2021)
 Q-Chem 5.4.0 for Intel X86 EM64T Linux

User input:
--------------------------------------------------------------
$molecule
0 1
C	-0.133897	-3.866725	-0.763475
C	0.106669	-3.703963	0.603206
C	0.185154	-2.357056	1.050446
H	0.226709	-4.561092	1.283024
C	0.000000	-1.440664	0.000000
S	-0.268206	-2.286957	-1.521018
C	0.437628	-1.978743	2.483610
H	0.549717	-2.878678	3.118875
H	-0.394664	-1.376015	2.903464
H	1.363110	-1.375728	2.593726
H	-0.237880	-4.783437	-1.354522
C	0.000000	0.000000	0.000000
C	0.747916	0.431772	1.099446
C	1.946425	1.123709	0.776721
H	0.428523	0.247378	2.136088
C	2.137531	1.234018	-0.612546
S	0.816154	0.471179	-1.486809
C	2.888455	1.667564	1.814609
H	2.519842	1.454746	2.836676
H	3.008896	2.767543	1.726239
H	3.901271	1.221850	1.726228
H	2.959587	1.708609	-1.161575
$end

$rem
JOBTYPE		SP
EXCHANGE	HF
CORRELATION	pRIMP2
BASIS		cc-pvtz
METHOD		rimp2
AUX_BASIS	rimp2-cc-pvtz
SOLVENT_METHOD	PCM
PURECART	11111
SYMMETRY	false
MEM_TOTAL	110000
SCF_CONVERGENCE = 6
THRESH=10
$end

$solvent
dielectric 4.90
$end
--------------------------------------------------------------

             Standard Nuclear Orientation (Angstroms)
    I     Atom           X                Y                Z
 ----------------------------------------------------------------
    1      C      -0.1338970000    -3.8667250000    -0.7634750000
    2      C       0.1066690000    -3.7039630000     0.6032060000
    3      C       0.1851540000    -2.3570560000     1.0504460000
    4      H       0.2267090000    -4.5610920000     1.2830240000
    5      C       0.0000000000    -1.4406640000     0.0000000000
    6      S      -0.2682060000    -2.2869570000    -1.5210180000
    7      C       0.4376280000    -1.9787430000     2.4836100000
    8      H       0.5497170000    -2.8786780000     3.1188750000
    9      H      -0.3946640000    -1.3760150000     2.9034640000
   10      H       1.3631100000    -1.3757280000     2.5937260000
   11      H      -0.2378800000    -4.7834370000    -1.3545220000
   12      C       0.0000000000     0.0000000000     0.0000000000
   13      C       0.7479160000     0.4317720000     1.0994460000
   14      C       1.9464250000     1.1237090000     0.7767210000
   15      H       0.4285230000     0.2473780000     2.1360880000
   16      C       2.1375310000     1.2340180000    -0.6125460000
   17      S       0.8161540000     0.4711790000    -1.4868090000
   18      C       2.8884550000     1.6675640000     1.8146090000
   19      H       2.5198420000     1.4547460000     2.8366760000
   20      H       3.0088960000     2.7675430000     1.7262390000
   21      H       3.9012710000     1.2218500000     1.7262280000
   22      H       2.9595870000     1.7086090000    -1.1615750000
 ----------------------------------------------------------------

   11   -1179.6027571630      6.28e-07  Convergence criterion met
 Total energy in the final basis set =    -1179.6027571630
        RIMP2         total energy =     -1181.6005122275 a.u.

                    Orbital Energies (a.u.)
 --------------------------------------------------------------

 Alpha MOs
 -- Occupied --
-91.9841 -91.9718 -11.2940 -11.2796 -11.2654 -11.2563 -11.2558 -11.2556
-11.2369 -11.2340 -11.2327 -11.2279  -8.9851  -8.9726  -6.6658  -6.6650
 -6.6647  -6.6536  -6.6530  -6.6523  -1.1948  -1.1449  -1.0487  -1.0270
 -0.9966  -0.9533  -0.9126  -0.8948  -0.7991  -0.7587  -0.7305  -0.7029
 -0.6527  -0.6182  -0.6004  -0.5852  -0.5700  -0.5591  -0.5503  -0.5431
 -0.5336  -0.5206  -0.5050  -0.4858  -0.4822  -0.4597  -0.4427  -0.3687
 -0.3515  -0.3268  -0.2612

          Ground-State Mulliken Net Atomic Charges

     Atom                 Charge (a.u.)
  ----------------------------------------
      1 C                    -0.246315
      2 C                    -0.248810
      3 C                     0.021385
      4 H                     0.180759
      5 C                    -0.007819
      6 S                    -0.010725
      7 C                    -0.296710
      8 H                     0.113754
      9 H                     0.101297
     10 H                     0.102944
     11 H                     0.200613
     12 C                    -0.115589
     13 C                    -0.125913
     14 C                    -0.013715
     15 H                     0.207283
     16 C                    -0.161721
     17 S                     0.043066
     18 C                    -0.275160
     19 H                     0.103349
     20 H                     0.114342
     21 H                     0.108579
     22 H                     0.205106
  ----------------------------------------
  Sum of atomic charges =     0.000000

                    Cartesian Multipole Moments
 -----------------------------------------------------------------
    Charge (ESU x 10^10)
                -0.0000
    Dipole Moment (Debye)
         X       3.3275      Y       1.3833      Z       3.0703
       Tot       4.7343
    Quadrupole Moments (Debye-Ang)
        XX     -82.3255     XY       5.3846     YY     -81.6394
        XZ       1.3664     YZ      -1.9475     ZZ     -80.0888

 Total job time:  662.75s(wall), 658.03s(cpu)
        *  Thank you very much for using Q-Chem.  Have a nice day.  *
