 Q-Chem 5.4, Q-Chem, Inc., Pleasanton, CA (2021)
 Q-Chem 5.4.0 for Intel X86 EM64T Linux

User input:
--------------------------------------------------------------
$molecule
0 1
C	-0.497696	-3.866725	-0.594240
C	0.393981	-3.703963	0.469057
C	0.685571	-2.357056	0.817136
H	0.837848	-4.561092	0.997777
C	0.000000	-1.440664	0.000000
S	-0.992782	-2.286957	-1.183137
C	1.620802	-1.978743	1.932056
H	2.035506	-2.878678	2.426166
H	1.109943	-1.376015	2.711806
H	2.477350	-1.375728	1.564678
H	-0.883271	-4.783437	-1.054110
C	0.000000	0.000000	0.000000
C	0.661577	0.555087	1.099446
C	1.721724	1.444630	0.776721
H	0.379056	0.318032	2.136088
C	1.890772	1.586449	-0.612546
S	0.721935	0.605744	-1.486809
C	2.555004	2.143805	1.814609
H	2.228946	1.870211	2.836676
H	2.482605	3.247987	1.726239
H	3.629830	1.880735	1.726228
H	2.617927	2.196579	-1.161575
$end

$rem
JOBTYPE		SP
EXCHANGE	HF
CORRELATION	pRIMP2
BASIS		cc-pvtz
METHOD		rimp2
AUX_BASIS	rimp2-cc-pvtz
SOLVENT_METHOD	PCM
PURECART	11111
SYMMETRY	false
MEM_TOTAL	110000
SCF_CONVERGENCE = 6
THRESH=10
$end

$solvent
dielectric 4.90
$end
--------------------------------------------------------------

             Standard Nuclear Orientation (Angstroms)
    I     Atom           X                Y                Z
 ----------------------------------------------------------------
    1      C      -0.4976960000    -3.8667250000    -0.5942400000
    2      C       0.3939810000    -3.7039630000     0.4690570000
    3      C       0.6855710000    -2.3570560000     0.8171360000
    4      H       0.8378480000    -4.5610920000     0.9977770000
    5      C       0.0000000000    -1.4406640000     0.0000000000
    6      S      -0.9927820000    -2.2869570000    -1.1831370000
    7      C       1.6208020000    -1.9787430000     1.9320560000
    8      H       2.0355060000    -2.8786780000     2.4261660000
    9      H       1.1099430000    -1.3760150000     2.7118060000
   10      H       2.4773500000    -1.3757280000     1.5646780000
   11      H      -0.8832710000    -4.7834370000    -1.0541100000
   12      C       0.0000000000     0.0000000000     0.0000000000
   13      C       0.6615770000     0.5550870000     1.0994460000
   14      C       1.7217240000     1.4446300000     0.7767210000
   15      H       0.3790560000     0.3180320000     2.1360880000
   16      C       1.8907720000     1.5864490000    -0.6125460000
   17      S       0.7219350000     0.6057440000    -1.4868090000
   18      C       2.5550040000     2.1438050000     1.8146090000
   19      H       2.2289460000     1.8702110000     2.8366760000
   20      H       2.4826050000     3.2479870000     1.7262390000
   21      H       3.6298300000     1.8807350000     1.7262280000
   22      H       2.6179270000     2.1965790000    -1.1615750000
 ----------------------------------------------------------------

   10   -1179.6336599929      9.86e-07  Convergence criterion met
 Total energy in the final basis set =    -1179.6336599929
        RIMP2         total energy =     -1181.6262640075 a.u.

                    Orbital Energies (a.u.)
 --------------------------------------------------------------

 Alpha MOs
 -- Occupied --
-91.9830 -91.9752 -11.2828 -11.2759 -11.2644 -11.2614 -11.2568 -11.2537
-11.2441 -11.2391 -11.2316 -11.2272  -8.9834  -8.9757  -6.6642  -6.6635
 -6.6630  -6.6566  -6.6560  -6.6554  -1.1873  -1.1471  -1.0449  -1.0238
 -0.9968  -0.9533  -0.9135  -0.8927  -0.7970  -0.7544  -0.7341  -0.7008
 -0.6555  -0.6174  -0.5938  -0.5831  -0.5700  -0.5612  -0.5493  -0.5401
 -0.5268  -0.5246  -0.5080  -0.4883  -0.4742  -0.4638  -0.4526  -0.3547
 -0.3430  -0.3373  -0.2727

          Ground-State Mulliken Net Atomic Charges

     Atom                 Charge (a.u.)
  ----------------------------------------
      1 C                    -0.218759
      2 C                    -0.259764
      3 C                     0.043460
      4 H                     0.182640
      5 C                     0.004801
      6 S                    -0.004914
      7 C                    -0.303290
      8 H                     0.115158
      9 H                     0.102921
     10 H                     0.116087
     11 H                     0.202523
     12 C                    -0.101294
     13 C                    -0.185448
     14 C                     0.010285
     15 H                     0.195309
     16 C                    -0.197173
     17 S                     0.040788
     18 C                    -0.272358
     19 H                     0.104258
     20 H                     0.115123
     21 H                     0.107648
     22 H                     0.201997
  ----------------------------------------
  Sum of atomic charges =     0.000000

                    Cartesian Multipole Moments
 -----------------------------------------------------------------
    Charge (ESU x 10^10)
                -0.0000
    Dipole Moment (Debye)
         X       3.2564      Y       0.8557      Z       2.8488
       Tot       4.4104
    Quadrupole Moments (Debye-Ang)
        XX     -82.8466     XY       4.6269     YY     -77.2682
        XZ       3.5158     YZ      -1.1890     ZZ     -82.7266

 Total job time:  597.58s(wall), 593.83s(cpu)
        *  Thank you very much for using Q-Chem.  Have a nice day.  *
