 Q-Chem 5.4, Q-Chem, Inc., Pleasanton, CA (2021)
 Q-Chem 5.4.0 for Intel X86 EM64T Linux

User input:
--------------------------------------------------------------
$molecule
0 1
C	0.728138	-3.866725	0.265779
C	-0.575726	-3.703963	-0.209225
C	-1.002290	-2.357056	-0.364875
H	-1.224486	-4.561092	-0.445176
C	0.000000	-1.440664	0.000000
S	1.451343	-2.286957	0.528236
C	-2.369683	-1.978743	-0.862808
H	-2.975883	-2.878678	-1.083368
H	-2.317142	-1.376015	-1.793522
H	-2.927787	-1.375728	-0.116375
H	1.291990	-4.783437	0.471251
C	0.000000	0.000000	0.000000
C	0.747916	0.431772	1.099446
C	1.946425	1.123709	0.776721
H	0.428523	0.247378	2.136088
C	2.137531	1.234018	-0.612546
S	0.816154	0.471179	-1.486809
C	2.888455	1.667564	1.814609
H	2.519842	1.454746	2.836676
H	3.008896	2.767543	1.726239
H	3.901271	1.221850	1.726228
H	2.959587	1.708609	-1.161575
$end

$rem
JOBTYPE		SP
EXCHANGE	HF
CORRELATION	pRIMP2
BASIS		cc-pvtz
METHOD		rimp2
AUX_BASIS	rimp2-cc-pvtz
SOLVENT_METHOD	PCM
PURECART	11111
SYMMETRY	false
MEM_TOTAL	110000
SCF_CONVERGENCE = 6
THRESH=10
$end

$solvent
dielectric 4.90
$end
--------------------------------------------------------------

             Standard Nuclear Orientation (Angstroms)
    I     Atom           X                Y                Z
 ----------------------------------------------------------------
    1      C       0.7281380000    -3.8667250000     0.2657790000
    2      C      -0.5757260000    -3.7039630000    -0.2092250000
    3      C      -1.0022900000    -2.3570560000    -0.3648750000
    4      H      -1.2244860000    -4.5610920000    -0.4451760000
    5      C       0.0000000000    -1.4406640000     0.0000000000
    6      S       1.4513430000    -2.2869570000     0.5282360000
    7      C      -2.3696830000    -1.9787430000    -0.8628080000
    8      H      -2.9758830000    -2.8786780000    -1.0833680000
    9      H      -2.3171420000    -1.3760150000    -1.7935220000
   10      H      -2.9277870000    -1.3757280000    -0.1163750000
   11      H       1.2919900000    -4.7834370000     0.4712510000
   12      C       0.0000000000     0.0000000000     0.0000000000
   13      C       0.7479160000     0.4317720000     1.0994460000
   14      C       1.9464250000     1.1237090000     0.7767210000
   15      H       0.4285230000     0.2473780000     2.1360880000
   16      C       2.1375310000     1.2340180000    -0.6125460000
   17      S       0.8161540000     0.4711790000    -1.4868090000
   18      C       2.8884550000     1.6675640000     1.8146090000
   19      H       2.5198420000     1.4547460000     2.8366760000
   20      H       3.0088960000     2.7675430000     1.7262390000
   21      H       3.9012710000     1.2218500000     1.7262280000
   22      H       2.9595870000     1.7086090000    -1.1615750000
 ----------------------------------------------------------------

   10   -1179.6171938223      7.70e-07  Convergence criterion met
 Total energy in the final basis set =    -1179.6171938223
        RIMP2         total energy =     -1181.6112555712 a.u.

                    Orbital Energies (a.u.)
 --------------------------------------------------------------

 Alpha MOs
 -- Occupied --
-91.9834 -91.9752 -11.2913 -11.2704 -11.2641 -11.2624 -11.2547 -11.2498
-11.2380 -11.2360 -11.2313 -11.2248  -8.9839  -8.9755  -6.6646  -6.6638
 -6.6634  -6.6564  -6.6558  -6.6552  -1.1919  -1.1448  -1.0461  -1.0170
 -1.0026  -0.9479  -0.9140  -0.8895  -0.7968  -0.7553  -0.7368  -0.6876
 -0.6560  -0.6229  -0.5876  -0.5796  -0.5697  -0.5684  -0.5484  -0.5355
 -0.5303  -0.5148  -0.5068  -0.4914  -0.4678  -0.4611  -0.4556  -0.3564
 -0.3354  -0.3218  -0.2856

          Ground-State Mulliken Net Atomic Charges

     Atom                 Charge (a.u.)
  ----------------------------------------
      1 C                    -0.237701
      2 C                    -0.242574
      3 C                     0.033127
      4 H                     0.180495
      5 C                    -0.027156
      6 S                     0.007109
      7 C                    -0.285499
      8 H                     0.106182
      9 H                     0.106208
     10 H                     0.108255
     11 H                     0.201338
     12 C                    -0.130737
     13 C                    -0.147145
     14 C                    -0.012925
     15 H                     0.194647
     16 C                    -0.159631
     17 S                     0.047678
     18 C                    -0.267030
     19 H                     0.104334
     20 H                     0.110493
     21 H                     0.107217
     22 H                     0.203314
  ----------------------------------------
  Sum of atomic charges =     0.000000

                    Cartesian Multipole Moments
 -----------------------------------------------------------------
    Charge (ESU x 10^10)
                -0.0000
    Dipole Moment (Debye)
         X       1.5588      Y       0.8197      Z       1.0893
       Tot       2.0708
    Quadrupole Moments (Debye-Ang)
        XX     -77.6844     XY       7.9359     YY     -79.7710
        XZ       2.3764     YZ       1.3882     ZZ     -85.0451

 Total job time:  582.52s(wall), 579.52s(cpu)
        *  Thank you very much for using Q-Chem.  Have a nice day.  *
