 Q-Chem 5.4, Q-Chem, Inc., Pleasanton, CA (2021)
 Q-Chem 5.4.0 for Intel X86 EM64T Linux

User input:
--------------------------------------------------------------
$molecule
0 1
C	0.498788	-3.866725	-0.593324
C	-0.393517	-3.703963	0.469446
C	-0.685674	-2.357056	0.817050
H	-0.837128	-4.561092	0.998381
C	0.000000	-1.440664	0.000000
S	0.992768	-2.286957	-1.183149
C	-1.621254	-1.978743	1.931676
H	-2.035845	-2.878678	2.425882
H	-2.477868	-1.376015	1.563980
H	-1.110719	-1.375728	2.711417
H	0.884718	-4.783437	-1.052896
C	0.000000	0.000000	0.000000
C	0.223548	0.834165	1.099446
C	0.581748	2.170912	0.776721
H	0.128089	0.477934	2.136088
C	0.638880	2.384045	-0.612546
S	0.243934	0.910282	-1.486809
C	0.863301	3.221592	1.814609
H	0.753137	2.810458	2.836676
H	0.170663	4.084559	1.726239
H	1.894637	3.622593	1.726228
H	0.884575	3.300913	-1.161575
$end

$rem
JOBTYPE		SP
EXCHANGE	HF
CORRELATION	pRIMP2
BASIS		cc-pvtz
METHOD		rimp2
AUX_BASIS	rimp2-cc-pvtz
SOLVENT_METHOD	PCM
PURECART	11111
SYMMETRY	false
MEM_TOTAL	110000
SCF_CONVERGENCE = 6
THRESH=10
$end

$solvent
dielectric 4.90
$end
--------------------------------------------------------------

             Standard Nuclear Orientation (Angstroms)
    I     Atom           X                Y                Z
 ----------------------------------------------------------------
    1      C       0.4987880000    -3.8667250000    -0.5933240000
    2      C      -0.3935170000    -3.7039630000     0.4694460000
    3      C      -0.6856740000    -2.3570560000     0.8170500000
    4      H      -0.8371280000    -4.5610920000     0.9983810000
    5      C       0.0000000000    -1.4406640000     0.0000000000
    6      S       0.9927680000    -2.2869570000    -1.1831490000
    7      C      -1.6212540000    -1.9787430000     1.9316760000
    8      H      -2.0358450000    -2.8786780000     2.4258820000
    9      H      -2.4778680000    -1.3760150000     1.5639800000
   10      H      -1.1107190000    -1.3757280000     2.7114170000
   11      H       0.8847180000    -4.7834370000    -1.0528960000
   12      C       0.0000000000     0.0000000000     0.0000000000
   13      C       0.2235480000     0.8341650000     1.0994460000
   14      C       0.5817480000     2.1709120000     0.7767210000
   15      H       0.1280890000     0.4779340000     2.1360880000
   16      C       0.6388800000     2.3840450000    -0.6125460000
   17      S       0.2439340000     0.9102820000    -1.4868090000
   18      C       0.8633010000     3.2215920000     1.8146090000
   19      H       0.7531370000     2.8104580000     2.8366760000
   20      H       0.1706630000     4.0845590000     1.7262390000
   21      H       1.8946370000     3.6225930000     1.7262280000
   22      H       0.8845750000     3.3009130000    -1.1615750000
 ----------------------------------------------------------------

   10   -1179.6823435641      4.99e-07  Convergence criterion met
 Total energy in the final basis set =    -1179.6823435641
        RIMP2         total energy =     -1181.6622959345 a.u.

                    Orbital Energies (a.u.)
 --------------------------------------------------------------

 Alpha MOs
 -- Occupied --
-91.9865 -91.9850 -11.2812 -11.2766 -11.2704 -11.2656 -11.2525 -11.2513
-11.2429 -11.2426 -11.2299 -11.2295  -8.9861  -8.9848  -6.6670  -6.6665
 -6.6659  -6.6657  -6.6651  -6.6645  -1.1808  -1.1499  -1.0418  -1.0249
 -0.9963  -0.9562  -0.9127  -0.8937  -0.8027  -0.7542  -0.7300  -0.6977
 -0.6618  -0.6151  -0.5869  -0.5807  -0.5700  -0.5652  -0.5523  -0.5368
 -0.5302  -0.5213  -0.5070  -0.4910  -0.4862  -0.4737  -0.4559  -0.3600
 -0.3423  -0.3386  -0.2765

          Ground-State Mulliken Net Atomic Charges

     Atom                 Charge (a.u.)
  ----------------------------------------
      1 C                    -0.218167
      2 C                    -0.248244
      3 C                     0.039628
      4 H                     0.183968
      5 C                    -0.032467
      6 S                     0.018516
      7 C                    -0.292879
      8 H                     0.110670
      9 H                     0.113060
     10 H                     0.106680
     11 H                     0.205061
     12 C                     0.002970
     13 C                    -0.219971
     14 C                     0.014153
     15 H                     0.192745
     16 C                    -0.232991
     17 S                     0.011261
     18 C                    -0.272242
     19 H                     0.102014
     20 H                     0.108435
     21 H                     0.108749
     22 H                     0.199051
  ----------------------------------------
  Sum of atomic charges =     0.000000

                    Cartesian Multipole Moments
 -----------------------------------------------------------------
    Charge (ESU x 10^10)
                -0.0000
    Dipole Moment (Debye)
         X      -0.4253      Y       0.3602      Z       2.5759
       Tot       2.6355
    Quadrupole Moments (Debye-Ang)
        XX     -89.3001     XY       4.1154     YY     -69.6070
        XZ      -2.9359     YZ      -0.6688     ZZ     -82.8126

 Total job time:  555.52s(wall), 549.59s(cpu)
        *  Thank you very much for using Q-Chem.  Have a nice day.  *
