 Q-Chem 5.4, Q-Chem, Inc., Pleasanton, CA (2021)
 Q-Chem 5.4.0 for Intel X86 EM64T Linux

User input:
--------------------------------------------------------------
$molecule
0 1
C	0.763228	-3.866725	0.135301
C	-0.603311	-3.703963	-0.106073
C	-1.050423	-2.357056	-0.185286
H	-1.283188	-4.561092	-0.225783
C	0.000000	-1.440664	0.000000
S	1.521021	-2.286957	0.268187
C	-2.483507	-1.978743	-0.438209
H	-3.118798	-2.878678	-0.550153
H	-2.593381	-1.376015	-1.363906
H	-2.903516	-1.375728	0.393798
H	1.354194	-4.783437	0.239740
C	0.000000	0.000000	0.000000
C	0.295399	0.811508	1.099446
C	0.768742	2.111949	0.776721
H	0.169256	0.464952	2.136088
C	0.844232	2.319291	-0.612546
S	0.322342	0.885558	-1.486809
C	1.140796	3.134091	1.814609
H	0.995218	2.734123	2.836676
H	0.526006	4.054142	1.726239
H	2.203157	3.443680	1.726228
H	1.168902	3.211257	-1.161575
$end

$rem
JOBTYPE		SP
EXCHANGE	HF
CORRELATION	pRIMP2
BASIS		cc-pvtz
METHOD		rimp2
AUX_BASIS	rimp2-cc-pvtz
SOLVENT_METHOD	PCM
PURECART	11111
SYMMETRY	false
MEM_TOTAL	110000
SCF_CONVERGENCE = 6
THRESH=10
$end

$solvent
dielectric 4.90
$end
--------------------------------------------------------------

             Standard Nuclear Orientation (Angstroms)
    I     Atom           X                Y                Z
 ----------------------------------------------------------------
    1      C       0.7632280000    -3.8667250000     0.1353010000
    2      C      -0.6033110000    -3.7039630000    -0.1060730000
    3      C      -1.0504230000    -2.3570560000    -0.1852860000
    4      H      -1.2831880000    -4.5610920000    -0.2257830000
    5      C       0.0000000000    -1.4406640000     0.0000000000
    6      S       1.5210210000    -2.2869570000     0.2681870000
    7      C      -2.4835070000    -1.9787430000    -0.4382090000
    8      H      -3.1187980000    -2.8786780000    -0.5501530000
    9      H      -2.5933810000    -1.3760150000    -1.3639060000
   10      H      -2.9035160000    -1.3757280000     0.3937980000
   11      H       1.3541940000    -4.7834370000     0.2397400000
   12      C       0.0000000000     0.0000000000     0.0000000000
   13      C       0.2953990000     0.8115080000     1.0994460000
   14      C       0.7687420000     2.1119490000     0.7767210000
   15      H       0.1692560000     0.4649520000     2.1360880000
   16      C       0.8442320000     2.3192910000    -0.6125460000
   17      S       0.3223420000     0.8855580000    -1.4868090000
   18      C       1.1407960000     3.1340910000     1.8146090000
   19      H       0.9952180000     2.7341230000     2.8366760000
   20      H       0.5260060000     4.0541420000     1.7262390000
   21      H       2.2031570000     3.4436800000     1.7262280000
   22      H       1.1689020000     3.2112570000    -1.1615750000
 ----------------------------------------------------------------

   10   -1179.6787837047      5.01e-07  Convergence criterion met
 Total energy in the final basis set =    -1179.6787837047
        RIMP2         total energy =     -1181.6580233588 a.u.

                    Orbital Energies (a.u.)
 --------------------------------------------------------------

 Alpha MOs
 -- Occupied --
-91.9846 -91.9838 -11.2756 -11.2717 -11.2716 -11.2671 -11.2520 -11.2510
-11.2442 -11.2409 -11.2290 -11.2290  -8.9842  -8.9835  -6.6651  -6.6645
 -6.6643  -6.6639  -6.6638  -6.6632  -1.1790  -1.1491  -1.0402  -1.0225
 -0.9974  -0.9529  -0.9135  -0.8919  -0.8000  -0.7546  -0.7299  -0.6934
 -0.6618  -0.6166  -0.5826  -0.5791  -0.5711  -0.5692  -0.5515  -0.5324
 -0.5285  -0.5191  -0.5078  -0.4922  -0.4844  -0.4645  -0.4626  -0.3479
 -0.3361  -0.3204  -0.3031

          Ground-State Mulliken Net Atomic Charges

     Atom                 Charge (a.u.)
  ----------------------------------------
      1 C                    -0.206527
      2 C                    -0.252701
      3 C                     0.055518
      4 H                     0.183081
      5 C                    -0.058132
      6 S                     0.026818
      7 C                    -0.283682
      8 H                     0.106614
      9 H                     0.109881
     10 H                     0.110304
     11 H                     0.204303
     12 C                     0.001412
     13 C                    -0.254716
     14 C                     0.035246
     15 H                     0.186017
     16 C                    -0.237191
     17 S                     0.026968
     18 C                    -0.269991
     19 H                     0.102803
     20 H                     0.107716
     21 H                     0.108188
     22 H                     0.198069
  ----------------------------------------
  Sum of atomic charges =     0.000000

                    Cartesian Multipole Moments
 -----------------------------------------------------------------
    Charge (ESU x 10^10)
                -0.0000
    Dipole Moment (Debye)
         X      -0.7640      Y       0.3092      Z       1.2007
       Tot       1.4564
    Quadrupole Moments (Debye-Ang)
        XX     -85.0566     XY       5.6567     YY     -70.1479
        XZ       1.4881     YZ       1.3213     ZZ     -86.4503

 Total job time:  550.86s(wall), 547.51s(cpu)
        *  Thank you very much for using Q-Chem.  Have a nice day.  *
