 Q-Chem 5.4, Q-Chem, Inc., Pleasanton, CA (2021)
 Q-Chem 5.4.0 for Intel X86 EM64T Linux

User input:
--------------------------------------------------------------
$molecule
0 1
C	0.670924	-3.866725	0.388181
C	-0.530648	-3.703963	-0.306020
C	-0.923703	-2.357056	-0.533378
H	-1.128579	-4.561092	-0.651043
C	0.000000	-1.440664	0.000000
S	1.337567	-2.286957	0.772234
C	-2.183857	-1.978743	-1.261192
H	-2.742548	-2.878678	-1.583666
H	-1.970497	-1.376015	-2.168641
H	-2.863099	-1.375728	-0.623012
H	1.190530	-4.783437	0.688443
C	0.000000	0.000000	0.000000
C	0.223548	0.834165	1.099446
C	0.581748	2.170912	0.776721
H	0.128089	0.477934	2.136088
C	0.638880	2.384045	-0.612546
S	0.243934	0.910282	-1.486809
C	0.863301	3.221592	1.814609
H	0.753137	2.810458	2.836676
H	0.170663	4.084559	1.726239
H	1.894637	3.622593	1.726228
H	0.884575	3.300913	-1.161575
$end

$rem
JOBTYPE		SP
EXCHANGE	HF
CORRELATION	pRIMP2
BASIS		cc-pvtz
METHOD		rimp2
AUX_BASIS	rimp2-cc-pvtz
SOLVENT_METHOD	PCM
PURECART	11111
SYMMETRY	false
MEM_TOTAL	110000
SCF_CONVERGENCE = 6
THRESH=10
$end

$solvent
dielectric 4.90
$end
--------------------------------------------------------------

             Standard Nuclear Orientation (Angstroms)
    I     Atom           X                Y                Z
 ----------------------------------------------------------------
    1      C       0.6709240000    -3.8667250000     0.3881810000
    2      C      -0.5306480000    -3.7039630000    -0.3060200000
    3      C      -0.9237030000    -2.3570560000    -0.5333780000
    4      H      -1.1285790000    -4.5610920000    -0.6510430000
    5      C       0.0000000000    -1.4406640000     0.0000000000
    6      S       1.3375670000    -2.2869570000     0.7722340000
    7      C      -2.1838570000    -1.9787430000    -1.2611920000
    8      H      -2.7425480000    -2.8786780000    -1.5836660000
    9      H      -1.9704970000    -1.3760150000    -2.1686410000
   10      H      -2.8630990000    -1.3757280000    -0.6230120000
   11      H       1.1905300000    -4.7834370000     0.6884430000
   12      C       0.0000000000     0.0000000000     0.0000000000
   13      C       0.2235480000     0.8341650000     1.0994460000
   14      C       0.5817480000     2.1709120000     0.7767210000
   15      H       0.1280890000     0.4779340000     2.1360880000
   16      C       0.6388800000     2.3840450000    -0.6125460000
   17      S       0.2439340000     0.9102820000    -1.4868090000
   18      C       0.8633010000     3.2215920000     1.8146090000
   19      H       0.7531370000     2.8104580000     2.8366760000
   20      H       0.1706630000     4.0845590000     1.7262390000
   21      H       1.8946370000     3.6225930000     1.7262280000
   22      H       0.8845750000     3.3009130000    -1.1615750000
 ----------------------------------------------------------------

   10   -1179.6832347286      5.10e-07  Convergence criterion met
 Total energy in the final basis set =    -1179.6832347286
        RIMP2         total energy =     -1181.6620698047 a.u.

                    Orbital Energies (a.u.)
 --------------------------------------------------------------

 Alpha MOs
 -- Occupied --
-91.9852 -91.9850 -11.2785 -11.2733 -11.2718 -11.2658 -11.2524 -11.2513
-11.2428 -11.2418 -11.2293 -11.2290  -8.9847  -8.9846  -6.6656  -6.6655
 -6.6650  -6.6649  -6.6644  -6.6643  -1.1794  -1.1495  -1.0405  -1.0232
 -0.9982  -0.9526  -0.9144  -0.8923  -0.8003  -0.7583  -0.7265  -0.6936
 -0.6624  -0.6165  -0.5829  -0.5788  -0.5732  -0.5695  -0.5519  -0.5334
 -0.5270  -0.5193  -0.5078  -0.4939  -0.4868  -0.4665  -0.4600  -0.3448
 -0.3421  -0.3362  -0.2886

          Ground-State Mulliken Net Atomic Charges

     Atom                 Charge (a.u.)
  ----------------------------------------
      1 C                    -0.211367
      2 C                    -0.249288
      3 C                     0.036803
      4 H                     0.183824
      5 C                    -0.033876
      6 S                     0.025440
      7 C                    -0.285003
      8 H                     0.107966
      9 H                     0.109321
     10 H                     0.111433
     11 H                     0.204545
     12 C                     0.014652
     13 C                    -0.274880
     14 C                     0.038493
     15 H                     0.189003
     16 C                    -0.240804
     17 S                     0.027233
     18 C                    -0.270785
     19 H                     0.102874
     20 H                     0.107900
     21 H                     0.108582
     22 H                     0.197935
  ----------------------------------------
  Sum of atomic charges =     0.000000

                    Cartesian Multipole Moments
 -----------------------------------------------------------------
    Charge (ESU x 10^10)
                -0.0000
    Dipole Moment (Debye)
         X      -0.7767      Y       0.2573      Z       0.6895
       Tot       1.0700
    Quadrupole Moments (Debye-Ang)
        XX     -87.0414     XY       4.5923     YY     -69.4685
        XZ       3.1625     YZ       2.0561     ZZ     -85.0209

 Total job time:  547.55s(wall), 543.07s(cpu)
        *  Thank you very much for using Q-Chem.  Have a nice day.  *
