 Q-Chem 5.4, Q-Chem, Inc., Pleasanton, CA (2021)
 Q-Chem 5.4.0 for Intel X86 EM64T Linux

User input:
--------------------------------------------------------------
$molecule
0 1
C	0.386946	-3.866725	0.671636
C	-0.306544	-3.703963	-0.530345
C	-0.533261	-2.357056	-0.923770
H	-0.651857	-4.561092	-1.128109
C	0.000000	-1.440664	0.000000
S	0.772250	-2.286957	1.337557
C	-1.260680	-1.978743	-2.184153
H	-1.583283	-2.878678	-2.742769
H	-0.622180	-1.376015	-2.863347
H	-2.168011	-1.375728	-1.971094
H	0.686807	-4.783437	1.191474
C	0.000000	0.000000	0.000000
C	0.661577	0.555087	1.099446
C	1.721724	1.444630	0.776721
H	0.379056	0.318032	2.136088
C	1.890772	1.586449	-0.612546
S	0.721935	0.605744	-1.486809
C	2.555004	2.143805	1.814609
H	2.228946	1.870211	2.836676
H	2.482605	3.247987	1.726239
H	3.629830	1.880735	1.726228
H	2.617927	2.196579	-1.161575
$end

$rem
JOBTYPE		SP
EXCHANGE	HF
CORRELATION	pRIMP2
BASIS		cc-pvtz
METHOD		rimp2
AUX_BASIS	rimp2-cc-pvtz
SOLVENT_METHOD	PCM
PURECART	11111
SYMMETRY	false
MEM_TOTAL	110000
SCF_CONVERGENCE = 6
THRESH=10
$end

$solvent
dielectric 4.90
$end
--------------------------------------------------------------

             Standard Nuclear Orientation (Angstroms)
    I     Atom           X                Y                Z
 ----------------------------------------------------------------
    1      C       0.3869460000    -3.8667250000     0.6716360000
    2      C      -0.3065440000    -3.7039630000    -0.5303450000
    3      C      -0.5332610000    -2.3570560000    -0.9237700000
    4      H      -0.6518570000    -4.5610920000    -1.1281090000
    5      C       0.0000000000    -1.4406640000     0.0000000000
    6      S       0.7722500000    -2.2869570000     1.3375570000
    7      C      -1.2606800000    -1.9787430000    -2.1841530000
    8      H      -1.5832830000    -2.8786780000    -2.7427690000
    9      H      -0.6221800000    -1.3760150000    -2.8633470000
   10      H      -2.1680110000    -1.3757280000    -1.9710940000
   11      H       0.6868070000    -4.7834370000     1.1914740000
   12      C       0.0000000000     0.0000000000     0.0000000000
   13      C       0.6615770000     0.5550870000     1.0994460000
   14      C       1.7217240000     1.4446300000     0.7767210000
   15      H       0.3790560000     0.3180320000     2.1360880000
   16      C       1.8907720000     1.5864490000    -0.6125460000
   17      S       0.7219350000     0.6057440000    -1.4868090000
   18      C       2.5550040000     2.1438050000     1.8146090000
   19      H       2.2289460000     1.8702110000     2.8366760000
   20      H       2.4826050000     3.2479870000     1.7262390000
   21      H       3.6298300000     1.8807350000     1.7262280000
   22      H       2.6179270000     2.1965790000    -1.1615750000
 ----------------------------------------------------------------

   10   -1179.6378316619      7.41e-07  Convergence criterion met
 Total energy in the final basis set =    -1179.6378316619
        RIMP2         total energy =     -1181.6295699807 a.u.

                    Orbital Energies (a.u.)
 --------------------------------------------------------------

 Alpha MOs
 -- Occupied --
-91.9856 -91.9792 -11.2839 -11.2756 -11.2650 -11.2606 -11.2572 -11.2553
-11.2390 -11.2380 -11.2311 -11.2266  -8.9859  -8.9792  -6.6667  -6.6660
 -6.6655  -6.6601  -6.6595  -6.6589  -1.1887  -1.1468  -1.0455  -1.0214
 -1.0019  -0.9486  -0.9147  -0.8922  -0.7978  -0.7648  -0.7259  -0.6904
 -0.6579  -0.6196  -0.5872  -0.5806  -0.5761  -0.5699  -0.5507  -0.5352
 -0.5281  -0.5164  -0.5081  -0.4951  -0.4731  -0.4682  -0.4516  -0.3587
 -0.3467  -0.3369  -0.2677

          Ground-State Mulliken Net Atomic Charges

     Atom                 Charge (a.u.)
  ----------------------------------------
      1 C                    -0.247145
      2 C                    -0.238435
      3 C                     0.007957
      4 H                     0.182001
      5 C                     0.011456
      6 S                     0.004616
      7 C                    -0.304928
      8 H                     0.110309
      9 H                     0.108099
     10 H                     0.112099
     11 H                     0.201652
     12 C                    -0.064451
     13 C                    -0.214700
     14 C                     0.027766
     15 H                     0.196092
     16 C                    -0.201206
     17 S                     0.051097
     18 C                    -0.265779
     19 H                     0.104067
     20 H                     0.109034
     21 H                     0.108376
     22 H                     0.202023
  ----------------------------------------
  Sum of atomic charges =     0.000000

                    Cartesian Multipole Moments
 -----------------------------------------------------------------
    Charge (ESU x 10^10)
                -0.0000
    Dipole Moment (Debye)
         X       1.5402      Y       1.0777      Z       0.2510
       Tot       1.8965
    Quadrupole Moments (Debye-Ang)
        XX     -83.7414     XY       7.4709     YY     -77.8069
        XZ       3.1732     YZ       2.7167     ZZ     -81.4457

 Total job time:  568.67s(wall), 565.76s(cpu)
        *  Thank you very much for using Q-Chem.  Have a nice day.  *
