 Q-Chem 5.4, Q-Chem, Inc., Pleasanton, CA (2021)
 Q-Chem 5.4.0 for Intel X86 EM64T Linux

User input:
--------------------------------------------------------------
$molecule
0 1
C	0.265779	-3.866725	-0.728138
C	-0.209225	-3.703963	0.575726
C	-0.364875	-2.357056	1.002290
H	-0.445176	-4.561092	1.224486
C	-0.000000	-1.440664	-0.000000
S	0.528236	-2.286957	-1.451343
C	-0.862808	-1.978743	2.369683
H	-1.083368	-2.878678	2.975883
H	-1.793522	-1.376015	2.317142
H	-0.116375	-1.375728	2.927787
H	0.471251	-4.783437	-1.291990
C	0.000000	0.000000	0.000000
C	0.365003	0.782674	1.099446
C	0.949885	2.036912	0.776721
H	0.209135	0.448431	2.136088
C	1.043159	2.236886	-0.612546
S	0.398297	0.854094	-1.486809
C	1.409609	3.022738	1.814609
H	1.229726	2.636980	2.836676
H	0.877346	3.992870	1.726239
H	2.494910	3.238558	1.726228
H	1.444334	3.097160	-1.161575
$end

$rem
JOBTYPE		SP
EXCHANGE	HF
CORRELATION	pRIMP2
BASIS		cc-pvtz
METHOD		rimp2
AUX_BASIS	rimp2-cc-pvtz
SOLVENT_METHOD	PCM
PURECART	11111
SYMMETRY	false
MEM_TOTAL	110000
SCF_CONVERGENCE = 6
THRESH=10
$end

$solvent
dielectric 4.90
$end
--------------------------------------------------------------

             Standard Nuclear Orientation (Angstroms)
    I     Atom           X                Y                Z
 ----------------------------------------------------------------
    1      C       0.2657790000    -3.8667250000    -0.7281380000
    2      C      -0.2092250000    -3.7039630000     0.5757260000
    3      C      -0.3648750000    -2.3570560000     1.0022900000
    4      H      -0.4451760000    -4.5610920000     1.2244860000
    5      C       0.0000000000    -1.4406640000     0.0000000000
    6      S       0.5282360000    -2.2869570000    -1.4513430000
    7      C      -0.8628080000    -1.9787430000     2.3696830000
    8      H      -1.0833680000    -2.8786780000     2.9758830000
    9      H      -1.7935220000    -1.3760150000     2.3171420000
   10      H      -0.1163750000    -1.3757280000     2.9277870000
   11      H       0.4712510000    -4.7834370000    -1.2919900000
   12      C       0.0000000000     0.0000000000     0.0000000000
   13      C       0.3650030000     0.7826740000     1.0994460000
   14      C       0.9498850000     2.0369120000     0.7767210000
   15      H       0.2091350000     0.4484310000     2.1360880000
   16      C       1.0431590000     2.2368860000    -0.6125460000
   17      S       0.3982970000     0.8540940000    -1.4868090000
   18      C       1.4096090000     3.0227380000     1.8146090000
   19      H       1.2297260000     2.6369800000     2.8366760000
   20      H       0.8773460000     3.9928700000     1.7262390000
   21      H       2.4949100000     3.2385580000     1.7262280000
   22      H       1.4443340000     3.0971600000    -1.1615750000
 ----------------------------------------------------------------

   10   -1179.6728550644      4.84e-07  Convergence criterion met
 Total energy in the final basis set =    -1179.6728550644
        RIMP2         total energy =     -1181.6560533293 a.u.

                    Orbital Energies (a.u.)
 --------------------------------------------------------------

 Alpha MOs
 -- Occupied --
-91.9861 -91.9836 -11.2802 -11.2783 -11.2690 -11.2679 -11.2534 -11.2486
-11.2453 -11.2423 -11.2304 -11.2300  -8.9861  -8.9835  -6.6670  -6.6664
 -6.6658  -6.6644  -6.6638  -6.6632  -1.1828  -1.1497  -1.0431  -1.0257
 -0.9961  -0.9566  -0.9129  -0.8945  -0.8029  -0.7556  -0.7288  -0.6999
 -0.6606  -0.6145  -0.5910  -0.5818  -0.5705  -0.5632  -0.5521  -0.5398
 -0.5309  -0.5220  -0.5059  -0.4906  -0.4840  -0.4771  -0.4503  -0.3691
 -0.3461  -0.3368  -0.2686

          Ground-State Mulliken Net Atomic Charges

     Atom                 Charge (a.u.)
  ----------------------------------------
      1 C                    -0.226968
      2 C                    -0.245889
      3 C                     0.045261
      4 H                     0.183472
      5 C                    -0.026319
      6 S                     0.011300
      7 C                    -0.311652
      8 H                     0.115420
      9 H                     0.116130
     10 H                     0.103223
     11 H                     0.205595
     12 C                     0.007343
     13 C                    -0.217223
     14 C                     0.017275
     15 H                     0.193971
     16 C                    -0.229178
     17 S                     0.008549
     18 C                    -0.270477
     19 H                     0.101719
     20 H                     0.108922
     21 H                     0.108564
     22 H                     0.200961
  ----------------------------------------
  Sum of atomic charges =     0.000000

                    Cartesian Multipole Moments
 -----------------------------------------------------------------
    Charge (ESU x 10^10)
                -0.0000
    Dipole Moment (Debye)
         X       0.4286      Y       0.5617      Z       2.8332
       Tot       2.9200
    Quadrupole Moments (Debye-Ang)
        XX     -89.9042     XY       5.1299     YY     -71.2696
        XZ      -1.6725     YZ      -1.1992     ZZ     -80.8508

 Total job time:  574.43s(wall), 570.28s(cpu)
        *  Thank you very much for using Q-Chem.  Have a nice day.  *
