 Q-Chem 5.4, Q-Chem, Inc., Pleasanton, CA (2021)
 Q-Chem 5.4.0 for Intel X86 EM64T Linux

User input:
--------------------------------------------------------------
$molecule
0 1
C	0.728625	-3.866725	-0.264439
C	-0.575519	-3.703963	0.209794
C	-1.002336	-2.357056	0.364749
H	-1.224165	-4.561092	0.446060
C	0.000000	-1.440664	0.000000
S	1.451336	-2.286957	-0.528253
C	-2.369885	-1.978743	0.862253
H	-2.976034	-2.878678	1.082953
H	-2.927887	-1.376015	0.115513
H	-2.317620	-1.375728	1.792797
H	1.292636	-4.783437	-0.469476
C	0.000000	0.000000	0.000000
C	0.661577	0.555087	1.099446
C	1.721724	1.444630	0.776721
H	0.379056	0.318032	2.136088
C	1.890772	1.586449	-0.612546
S	0.721935	0.605744	-1.486809
C	2.555004	2.143805	1.814609
H	2.228946	1.870211	2.836676
H	2.482605	3.247987	1.726239
H	3.629830	1.880735	1.726228
H	2.617927	2.196579	-1.161575
$end

$rem
JOBTYPE		SP
EXCHANGE	HF
CORRELATION	pRIMP2
BASIS		cc-pvtz
METHOD		rimp2
AUX_BASIS	rimp2-cc-pvtz
SOLVENT_METHOD	PCM
PURECART	11111
SYMMETRY	false
MEM_TOTAL	110000
SCF_CONVERGENCE = 6
THRESH=10
$end

$solvent
dielectric 4.90
$end
--------------------------------------------------------------

             Standard Nuclear Orientation (Angstroms)
    I     Atom           X                Y                Z
 ----------------------------------------------------------------
    1      C       0.7286250000    -3.8667250000    -0.2644390000
    2      C      -0.5755190000    -3.7039630000     0.2097940000
    3      C      -1.0023360000    -2.3570560000     0.3647490000
    4      H      -1.2241650000    -4.5610920000     0.4460600000
    5      C       0.0000000000    -1.4406640000     0.0000000000
    6      S       1.4513360000    -2.2869570000    -0.5282530000
    7      C      -2.3698850000    -1.9787430000     0.8622530000
    8      H      -2.9760340000    -2.8786780000     1.0829530000
    9      H      -2.9278870000    -1.3760150000     0.1155130000
   10      H      -2.3176200000    -1.3757280000     1.7927970000
   11      H       1.2926360000    -4.7834370000    -0.4694760000
   12      C       0.0000000000     0.0000000000     0.0000000000
   13      C       0.6615770000     0.5550870000     1.0994460000
   14      C       1.7217240000     1.4446300000     0.7767210000
   15      H       0.3790560000     0.3180320000     2.1360880000
   16      C       1.8907720000     1.5864490000    -0.6125460000
   17      S       0.7219350000     0.6057440000    -1.4868090000
   18      C       2.5550040000     2.1438050000     1.8146090000
   19      H       2.2289460000     1.8702110000     2.8366760000
   20      H       2.4826050000     3.2479870000     1.7262390000
   21      H       3.6298300000     1.8807350000     1.7262280000
   22      H       2.6179270000     2.1965790000    -1.1615750000
 ----------------------------------------------------------------

   10   -1179.6358894696      7.24e-07  Convergence criterion met
 Total energy in the final basis set =    -1179.6358894696
        RIMP2         total energy =     -1181.6254752903 a.u.

                    Orbital Energies (a.u.)
 --------------------------------------------------------------

 Alpha MOs
 -- Occupied --
-91.9839 -91.9764 -11.2832 -11.2715 -11.2632 -11.2603 -11.2586 -11.2530
-11.2404 -11.2363 -11.2306 -11.2258  -8.9843  -8.9766  -6.6651  -6.6643
 -6.6639  -6.6575  -6.6569  -6.6563  -1.1866  -1.1460  -1.0443  -1.0183
 -0.9983  -0.9528  -0.9103  -0.8911  -0.7987  -0.7481  -0.7386  -0.6918
 -0.6567  -0.6195  -0.5859  -0.5793  -0.5687  -0.5677  -0.5493  -0.5336
 -0.5321  -0.5167  -0.5082  -0.4892  -0.4725  -0.4608  -0.4592  -0.3608
 -0.3338  -0.3193  -0.2872

          Ground-State Mulliken Net Atomic Charges

     Atom                 Charge (a.u.)
  ----------------------------------------
      1 C                    -0.229833
      2 C                    -0.248788
      3 C                     0.036743
      4 H                     0.180513
      5 C                    -0.047032
      6 S                     0.019309
      7 C                    -0.284737
      8 H                     0.105752
      9 H                     0.108640
     10 H                     0.105323
     11 H                     0.201751
     12 C                    -0.088178
     13 C                    -0.134269
     14 C                    -0.004823
     15 H                     0.186789
     16 C                    -0.189531
     17 S                     0.031291
     18 C                    -0.267433
     19 H                     0.102976
     20 H                     0.107822
     21 H                     0.106905
     22 H                     0.200812
  ----------------------------------------
  Sum of atomic charges =     0.000000

                    Cartesian Multipole Moments
 -----------------------------------------------------------------
    Charge (ESU x 10^10)
                -0.0000
    Dipole Moment (Debye)
         X       0.9318      Y       0.9585      Z       2.0348
       Tot       2.4347
    Quadrupole Moments (Debye-Ang)
        XX     -80.1742     XY       8.1645     YY     -77.7587
        XZ      -1.3912     YZ      -0.2081     ZZ     -85.1835

 Total job time:  589.35s(wall), 586.52s(cpu)
        *  Thank you very much for using Q-Chem.  Have a nice day.  *
