 Q-Chem 5.4, Q-Chem, Inc., Pleasanton, CA (2021)
 Q-Chem 5.4.0 for Intel X86 EM64T Linux

User input:
--------------------------------------------------------------
$molecule
0 1
C	0.728138	-3.866725	0.265779
C	-0.575726	-3.703963	-0.209225
C	-1.002290	-2.357056	-0.364875
H	-1.224486	-4.561092	-0.445176
C	-0.000000	-1.440664	-0.000000
S	1.451343	-2.286957	0.528236
C	-2.369683	-1.978743	-0.862808
H	-2.975883	-2.878678	-1.083368
H	-2.317142	-1.376015	-1.793522
H	-2.927787	-1.375728	-0.116375
H	1.291990	-4.783437	0.471251
C	0.000000	0.000000	0.000000
C	0.149995	0.850475	1.099446
C	0.390327	2.213354	0.776721
H	0.085947	0.487279	2.136088
C	0.428665	2.430655	-0.612546
S	0.163670	0.928078	-1.486809
C	0.579235	3.284574	1.814609
H	0.505323	2.865404	2.836676
H	-0.185980	4.083890	1.726239
H	1.571698	3.773937	1.726228
H	0.593515	3.365448	-1.161575
$end

$rem
JOBTYPE		SP
EXCHANGE	HF
CORRELATION	pRIMP2
BASIS		cc-pvtz
METHOD		rimp2
AUX_BASIS	rimp2-cc-pvtz
SOLVENT_METHOD	PCM
PURECART	11111
SYMMETRY	false
MEM_TOTAL	110000
SCF_CONVERGENCE = 6
THRESH=10
$end

$solvent
dielectric 4.90
$end
--------------------------------------------------------------

             Standard Nuclear Orientation (Angstroms)
    I     Atom           X                Y                Z
 ----------------------------------------------------------------
    1      C       0.7281380000    -3.8667250000     0.2657790000
    2      C      -0.5757260000    -3.7039630000    -0.2092250000
    3      C      -1.0022900000    -2.3570560000    -0.3648750000
    4      H      -1.2244860000    -4.5610920000    -0.4451760000
    5      C       0.0000000000    -1.4406640000     0.0000000000
    6      S       1.4513430000    -2.2869570000     0.5282360000
    7      C      -2.3696830000    -1.9787430000    -0.8628080000
    8      H      -2.9758830000    -2.8786780000    -1.0833680000
    9      H      -2.3171420000    -1.3760150000    -1.7935220000
   10      H      -2.9277870000    -1.3757280000    -0.1163750000
   11      H       1.2919900000    -4.7834370000     0.4712510000
   12      C       0.0000000000     0.0000000000     0.0000000000
   13      C       0.1499950000     0.8504750000     1.0994460000
   14      C       0.3903270000     2.2133540000     0.7767210000
   15      H       0.0859470000     0.4872790000     2.1360880000
   16      C       0.4286650000     2.4306550000    -0.6125460000
   17      S       0.1636700000     0.9280780000    -1.4868090000
   18      C       0.5792350000     3.2845740000     1.8146090000
   19      H       0.5053230000     2.8654040000     2.8366760000
   20      H      -0.1859800000     4.0838900000     1.7262390000
   21      H       1.5716980000     3.7739370000     1.7262280000
   22      H       0.5935150000     3.3654480000    -1.1615750000
 ----------------------------------------------------------------

   10   -1179.6847554191      5.05e-07  Convergence criterion met
 Total energy in the final basis set =    -1179.6847554191
        RIMP2         total energy =     -1181.6628429279 a.u.

                    Orbital Energies (a.u.)
 --------------------------------------------------------------

 Alpha MOs
 -- Occupied --
-91.9851 -91.9850 -11.2786 -11.2728 -11.2723 -11.2651 -11.2533 -11.2509
-11.2425 -11.2418 -11.2293 -11.2289  -8.9846  -8.9846  -6.6655  -6.6654
 -6.6650  -6.6649  -6.6643  -6.6643  -1.1788  -1.1495  -1.0402  -1.0231
 -0.9978  -0.9531  -0.9140  -0.8921  -0.8005  -0.7566  -0.7279  -0.6941
 -0.6624  -0.6164  -0.5826  -0.5788  -0.5722  -0.5693  -0.5519  -0.5327
 -0.5278  -0.5194  -0.5076  -0.4931  -0.4876  -0.4655  -0.4613  -0.3455
 -0.3395  -0.3293  -0.2959

          Ground-State Mulliken Net Atomic Charges

     Atom                 Charge (a.u.)
  ----------------------------------------
      1 C                    -0.210162
      2 C                    -0.249939
      3 C                     0.041868
      4 H                     0.184005
      5 C                    -0.044907
      6 S                     0.025625
      7 C                    -0.282507
      8 H                     0.107221
      9 H                     0.109399
     10 H                     0.110869
     11 H                     0.204507
     12 C                     0.005549
     13 C                    -0.249571
     14 C                     0.027500
     15 H                     0.187668
     16 C                    -0.239077
     17 S                     0.026083
     18 C                    -0.271049
     19 H                     0.102747
     20 H                     0.107843
     21 H                     0.108409
     22 H                     0.197919
  ----------------------------------------
  Sum of atomic charges =     0.000000

                    Cartesian Multipole Moments
 -----------------------------------------------------------------
    Charge (ESU x 10^10)
                -0.0000
    Dipole Moment (Debye)
         X      -1.0671      Y       0.2389      Z       0.9228
       Tot       1.4309
    Quadrupole Moments (Debye-Ang)
        XX     -86.5683     XY       3.8634     YY     -69.0398
        XZ       2.3372     YZ       1.7477     ZZ     -85.9338

 Total job time:  555.41s(wall), 551.35s(cpu)
        *  Thank you very much for using Q-Chem.  Have a nice day.  *
