 Q-Chem 5.4, Q-Chem, Inc., Pleasanton, CA (2021)
 Q-Chem 5.4.0 for Intel X86 EM64T Linux

User input:
--------------------------------------------------------------
$molecule
0 1
C	0.264439	-3.866725	0.728625
C	-0.209794	-3.703963	-0.575519
C	-0.364749	-2.357056	-1.002336
H	-0.446060	-4.561092	-1.224165
C	0.000000	-1.440664	0.000000
S	0.528253	-2.286957	1.451336
C	-0.862253	-1.978743	-2.369885
H	-1.082953	-2.878678	-2.976034
H	-0.115513	-1.376015	-2.927887
H	-1.792797	-1.375728	-2.317620
H	0.469476	-4.783437	1.292636
C	0.000000	0.000000	0.000000
C	0.431829	0.747884	1.099446
C	1.123799	1.946373	0.776721
H	0.247423	0.428497	2.136088
C	1.234147	2.137457	-0.612546
S	0.471221	0.816130	-1.486809
C	1.667694	2.888380	1.814609
H	1.454874	2.519768	2.836676
H	1.222009	3.901210	1.726239
H	2.767675	3.008788	1.726228
H	1.708773	2.959493	-1.161575
$end

$rem
JOBTYPE		SP
EXCHANGE	HF
CORRELATION	pRIMP2
BASIS		cc-pvtz
METHOD		rimp2
AUX_BASIS	rimp2-cc-pvtz
SOLVENT_METHOD	PCM
PURECART	11111
SYMMETRY	false
MEM_TOTAL	110000
SCF_CONVERGENCE = 6
THRESH=10
$end

$solvent
dielectric 4.90
$end
--------------------------------------------------------------

             Standard Nuclear Orientation (Angstroms)
    I     Atom           X                Y                Z
 ----------------------------------------------------------------
    1      C       0.2644390000    -3.8667250000     0.7286250000
    2      C      -0.2097940000    -3.7039630000    -0.5755190000
    3      C      -0.3647490000    -2.3570560000    -1.0023360000
    4      H      -0.4460600000    -4.5610920000    -1.2241650000
    5      C       0.0000000000    -1.4406640000     0.0000000000
    6      S       0.5282530000    -2.2869570000     1.4513360000
    7      C      -0.8622530000    -1.9787430000    -2.3698850000
    8      H      -1.0829530000    -2.8786780000    -2.9760340000
    9      H      -0.1155130000    -1.3760150000    -2.9278870000
   10      H      -1.7927970000    -1.3757280000    -2.3176200000
   11      H       0.4694760000    -4.7834370000     1.2926360000
   12      C       0.0000000000     0.0000000000     0.0000000000
   13      C       0.4318290000     0.7478840000     1.0994460000
   14      C       1.1237990000     1.9463730000     0.7767210000
   15      H       0.2474230000     0.4284970000     2.1360880000
   16      C       1.2341470000     2.1374570000    -0.6125460000
   17      S       0.4712210000     0.8161300000    -1.4868090000
   18      C       1.6676940000     2.8883800000     1.8146090000
   19      H       1.4548740000     2.5197680000     2.8366760000
   20      H       1.2220090000     3.9012100000     1.7262390000
   21      H       2.7676750000     3.0087880000     1.7262280000
   22      H       1.7087730000     2.9594930000    -1.1615750000
 ----------------------------------------------------------------

   10   -1179.6695125315      5.27e-07  Convergence criterion met
 Total energy in the final basis set =    -1179.6695125315
        RIMP2         total energy =     -1181.6540948003 a.u.

                    Orbital Energies (a.u.)
 --------------------------------------------------------------

 Alpha MOs
 -- Occupied --
-91.9851 -91.9827 -11.2781 -11.2767 -11.2694 -11.2685 -11.2534 -11.2485
-11.2457 -11.2417 -11.2297 -11.2291  -8.9850  -8.9826  -6.6659  -6.6653
 -6.6647  -6.6636  -6.6630  -6.6623  -1.1830  -1.1493  -1.0430  -1.0242
 -0.9997  -0.9513  -0.9148  -0.8942  -0.7993  -0.7649  -0.7218  -0.6940
 -0.6615  -0.6168  -0.5843  -0.5807  -0.5785  -0.5701  -0.5522  -0.5345
 -0.5248  -0.5196  -0.5107  -0.4960  -0.4842  -0.4674  -0.4515  -0.3655
 -0.3442  -0.3399  -0.2684

          Ground-State Mulliken Net Atomic Charges

     Atom                 Charge (a.u.)
  ----------------------------------------
      1 C                    -0.221981
      2 C                    -0.247347
      3 C                     0.034548
      4 H                     0.183726
      5 C                    -0.011898
      6 S                     0.007149
      7 C                    -0.314666
      8 H                     0.114144
      9 H                     0.111636
     10 H                     0.117870
     11 H                     0.205069
     12 C                     0.033510
     13 C                    -0.289199
     14 C                     0.052108
     15 H                     0.182784
     16 C                    -0.247711
     17 S                     0.038395
     18 C                    -0.267760
     19 H                     0.103267
     20 H                     0.108504
     21 H                     0.108969
     22 H                     0.198883
  ----------------------------------------
  Sum of atomic charges =     0.000000

                    Cartesian Multipole Moments
 -----------------------------------------------------------------
    Charge (ESU x 10^10)
                -0.0000
    Dipole Moment (Debye)
         X       0.5895      Y       0.4851      Z       0.0187
       Tot       0.7636
    Quadrupole Moments (Debye-Ang)
        XX     -89.0885     XY       5.7463     YY     -72.1049
        XZ       2.5958     YZ       3.0930     ZZ     -80.6725

 Total job time:  561.68s(wall), 557.48s(cpu)
        *  Thank you very much for using Q-Chem.  Have a nice day.  *
