 Q-Chem 5.4, Q-Chem, Inc., Pleasanton, CA (2021)
 Q-Chem 5.4.0 for Intel X86 EM64T Linux

User input:
--------------------------------------------------------------
$molecule
0 1
C	-0.386946	-3.866725	-0.671636
C	0.306544	-3.703963	0.530345
C	0.533261	-2.357056	0.923770
H	0.651857	-4.561092	1.128109
C	0.000000	-1.440664	0.000000
S	-0.772250	-2.286957	-1.337557
C	1.260680	-1.978743	2.184153
H	1.583283	-2.878678	2.742769
H	0.622180	-1.376015	2.863347
H	2.168011	-1.375728	1.971094
H	-0.686807	-4.783437	-1.191474
C	0.000000	0.000000	0.000000
C	0.431829	0.747884	1.099446
C	1.123799	1.946373	0.776721
H	0.247423	0.428497	2.136088
C	1.234147	2.137457	-0.612546
S	0.471221	0.816130	-1.486809
C	1.667694	2.888380	1.814609
H	1.454874	2.519768	2.836676
H	1.222009	3.901210	1.726239
H	2.767675	3.008788	1.726228
H	1.708773	2.959493	-1.161575
$end

$rem
JOBTYPE		SP
EXCHANGE	HF
CORRELATION	pRIMP2
BASIS		cc-pvtz
METHOD		rimp2
AUX_BASIS	rimp2-cc-pvtz
SOLVENT_METHOD	PCM
PURECART	11111
SYMMETRY	false
MEM_TOTAL	110000
SCF_CONVERGENCE = 6
THRESH=10
$end

$solvent
dielectric 4.90
$end
--------------------------------------------------------------

             Standard Nuclear Orientation (Angstroms)
    I     Atom           X                Y                Z
 ----------------------------------------------------------------
    1      C      -0.3869460000    -3.8667250000    -0.6716360000
    2      C       0.3065440000    -3.7039630000     0.5303450000
    3      C       0.5332610000    -2.3570560000     0.9237700000
    4      H       0.6518570000    -4.5610920000     1.1281090000
    5      C       0.0000000000    -1.4406640000     0.0000000000
    6      S      -0.7722500000    -2.2869570000    -1.3375570000
    7      C       1.2606800000    -1.9787430000     2.1841530000
    8      H       1.5832830000    -2.8786780000     2.7427690000
    9      H       0.6221800000    -1.3760150000     2.8633470000
   10      H       2.1680110000    -1.3757280000     1.9710940000
   11      H      -0.6868070000    -4.7834370000    -1.1914740000
   12      C       0.0000000000     0.0000000000     0.0000000000
   13      C       0.4318290000     0.7478840000     1.0994460000
   14      C       1.1237990000     1.9463730000     0.7767210000
   15      H       0.2474230000     0.4284970000     2.1360880000
   16      C       1.2341470000     2.1374570000    -0.6125460000
   17      S       0.4712210000     0.8161300000    -1.4868090000
   18      C       1.6676940000     2.8883800000     1.8146090000
   19      H       1.4548740000     2.5197680000     2.8366760000
   20      H       1.2220090000     3.9012100000     1.7262390000
   21      H       2.7676750000     3.0087880000     1.7262280000
   22      H       1.7087730000     2.9594930000    -1.1615750000
 ----------------------------------------------------------------

   10   -1179.6673246642      5.50e-07  Convergence criterion met
 Total energy in the final basis set =    -1179.6673246642
        RIMP2         total energy =     -1181.6519940904 a.u.

                    Orbital Energies (a.u.)
 --------------------------------------------------------------

 Alpha MOs
 -- Occupied --
-91.9846 -91.9811 -11.2771 -11.2754 -11.2703 -11.2698 -11.2526 -11.2506
-11.2453 -11.2421 -11.2301 -11.2296  -8.9845  -8.9813  -6.6654  -6.6648
 -6.6642  -6.6623  -6.6617  -6.6611  -1.1824  -1.1493  -1.0425  -1.0254
 -0.9960  -0.9552  -0.9137  -0.8937  -0.8004  -0.7554  -0.7297  -0.7005
 -0.6597  -0.6149  -0.5909  -0.5814  -0.5710  -0.5626  -0.5509  -0.5393
 -0.5281  -0.5237  -0.5063  -0.4909  -0.4808  -0.4716  -0.4536  -0.3611
 -0.3450  -0.3385  -0.2719

          Ground-State Mulliken Net Atomic Charges

     Atom                 Charge (a.u.)
  ----------------------------------------
      1 C                    -0.215502
      2 C                    -0.250200
      3 C                     0.058837
      4 H                     0.184034
      5 C                    -0.028870
      6 S                     0.008264
      7 C                    -0.306177
      8 H                     0.115801
      9 H                     0.104741
     10 H                     0.118120
     11 H                     0.205310
     12 C                     0.007410
     13 C                    -0.290123
     14 C                     0.054581
     15 H                     0.195867
     16 C                    -0.242353
     17 S                     0.030553
     18 C                    -0.269337
     19 H                     0.102282
     20 H                     0.109276
     21 H                     0.108416
     22 H                     0.199071
  ----------------------------------------
  Sum of atomic charges =     0.000000

                    Cartesian Multipole Moments
 -----------------------------------------------------------------
    Charge (ESU x 10^10)
                -0.0000
    Dipole Moment (Debye)
         X       1.8911      Y       0.4599      Z       2.8523
       Tot       3.4530
    Quadrupole Moments (Debye-Ang)
        XX     -88.2064     XY       3.8446     YY     -71.8980
        XZ       3.2613     YZ      -1.0849     ZZ     -81.8344

 Total job time:  571.48s(wall), 568.36s(cpu)
        *  Thank you very much for using Q-Chem.  Have a nice day.  *
