 Q-Chem 5.4, Q-Chem, Inc., Pleasanton, CA (2021)
 Q-Chem 5.4.0 for Intel X86 EM64T Linux

User input:
--------------------------------------------------------------
$molecule
0 1
C	0.775127	-3.866725	0.000713
C	-0.612565	-3.703963	0.000302
C	-1.066639	-2.357056	-0.000067
H	-1.302900	-4.561092	0.000470
C	0.000000	-1.440664	0.000000
S	1.544483	-2.286957	-0.000009
C	-2.521872	-1.978743	-0.000295
H	-3.166949	-2.878678	-0.000221
H	-2.790821	-1.376015	-0.892850
H	-2.791023	-1.375728	0.892005
H	1.375251	-4.783437	0.000945
C	0.000000	0.000000	0.000000
C	0.747916	0.431772	1.099446
C	1.946425	1.123709	0.776721
H	0.428523	0.247378	2.136088
C	2.137531	1.234018	-0.612546
S	0.816154	0.471179	-1.486809
C	2.888455	1.667564	1.814609
H	2.519842	1.454746	2.836676
H	3.008896	2.767543	1.726239
H	3.901271	1.221850	1.726228
H	2.959587	1.708609	-1.161575
$end

$rem
JOBTYPE		SP
EXCHANGE	HF
CORRELATION	pRIMP2
BASIS		cc-pvtz
METHOD		rimp2
AUX_BASIS	rimp2-cc-pvtz
SOLVENT_METHOD	PCM
PURECART	11111
SYMMETRY	false
MEM_TOTAL	110000
SCF_CONVERGENCE = 6
THRESH=10
$end

$solvent
dielectric 4.90
$end
--------------------------------------------------------------

             Standard Nuclear Orientation (Angstroms)
    I     Atom           X                Y                Z
 ----------------------------------------------------------------
    1      C       0.7751270000    -3.8667250000     0.0007130000
    2      C      -0.6125650000    -3.7039630000     0.0003020000
    3      C      -1.0666390000    -2.3570560000    -0.0000670000
    4      H      -1.3029000000    -4.5610920000     0.0004700000
    5      C       0.0000000000    -1.4406640000     0.0000000000
    6      S       1.5444830000    -2.2869570000    -0.0000090000
    7      C      -2.5218720000    -1.9787430000    -0.0002950000
    8      H      -3.1669490000    -2.8786780000    -0.0002210000
    9      H      -2.7908210000    -1.3760150000    -0.8928500000
   10      H      -2.7910230000    -1.3757280000     0.8920050000
   11      H       1.3752510000    -4.7834370000     0.0009450000
   12      C       0.0000000000     0.0000000000     0.0000000000
   13      C       0.7479160000     0.4317720000     1.0994460000
   14      C       1.9464250000     1.1237090000     0.7767210000
   15      H       0.4285230000     0.2473780000     2.1360880000
   16      C       2.1375310000     1.2340180000    -0.6125460000
   17      S       0.8161540000     0.4711790000    -1.4868090000
   18      C       2.8884550000     1.6675640000     1.8146090000
   19      H       2.5198420000     1.4547460000     2.8366760000
   20      H       3.0088960000     2.7675430000     1.7262390000
   21      H       3.9012710000     1.2218500000     1.7262280000
   22      H       2.9595870000     1.7086090000    -1.1615750000
 ----------------------------------------------------------------

   10   -1179.6142110920      8.09e-07  Convergence criterion met
 Total energy in the final basis set =    -1179.6142110920
        RIMP2         total energy =     -1181.6076679714 a.u.

                    Orbital Energies (a.u.)
 --------------------------------------------------------------

 Alpha MOs
 -- Occupied --
-91.9820 -91.9721 -11.2910 -11.2693 -11.2653 -11.2640 -11.2536 -11.2485
-11.2394 -11.2349 -11.2311 -11.2248  -8.9826  -8.9728  -6.6633  -6.6625
 -6.6622  -6.6537  -6.6531  -6.6525  -1.1914  -1.1445  -1.0458  -1.0165
 -1.0011  -0.9497  -0.9120  -0.8897  -0.7970  -0.7496  -0.7412  -0.6885
 -0.6557  -0.6228  -0.5872  -0.5793  -0.5687  -0.5681  -0.5480  -0.5349
 -0.5312  -0.5153  -0.5070  -0.4899  -0.4687  -0.4611  -0.4517  -0.3637
 -0.3264  -0.3158  -0.2914

          Ground-State Mulliken Net Atomic Charges

     Atom                 Charge (a.u.)
  ----------------------------------------
      1 C                    -0.228191
      2 C                    -0.249853
      3 C                     0.047256
      4 H                     0.179736
      5 C                    -0.056282
      6 S                     0.005992
      7 C                    -0.282138
      8 H                     0.105478
      9 H                     0.108042
     10 H                     0.106790
     11 H                     0.201922
     12 C                    -0.129570
     13 C                    -0.116321
     14 C                    -0.018084
     15 H                     0.188698
     16 C                    -0.162207
     17 S                     0.044922
     18 C                    -0.267664
     19 H                     0.103675
     20 H                     0.108949
     21 H                     0.106485
     22 H                     0.202366
  ----------------------------------------
  Sum of atomic charges =     0.000000

                    Cartesian Multipole Moments
 -----------------------------------------------------------------
    Charge (ESU x 10^10)
                -0.0000
    Dipole Moment (Debye)
         X       1.4614      Y       0.7859      Z       1.6068
       Tot       2.3098
    Quadrupole Moments (Debye-Ang)
        XX     -77.0704     XY       8.0114     YY     -79.8660
        XZ       0.4631     YZ       0.6011     ZZ     -85.6322

 Total job time:  589.58s(wall), 585.49s(cpu)
        *  Thank you very much for using Q-Chem.  Have a nice day.  *
