 Q-Chem 5.4, Q-Chem, Inc., Pleasanton, CA (2021)
 Q-Chem 5.4.0 for Intel X86 EM64T Linux

User input:
--------------------------------------------------------------
$molecule
0 1
C	0.763475	-3.866725	-0.133897
C	-0.603206	-3.703963	0.106669
C	-1.050446	-2.357056	0.185154
H	-1.283024	-4.561092	0.226709
C	0.000000	-1.440664	0.000000
S	1.521018	-2.286957	-0.268206
C	-2.483610	-1.978743	0.437628
H	-3.118875	-2.878678	0.549717
H	-2.903464	-1.376015	-0.394664
H	-2.593726	-1.375728	1.363110
H	1.354522	-4.783437	-0.237880
C	0.000000	0.000000	0.000000
C	0.431829	0.747884	1.099446
C	1.123799	1.946373	0.776721
H	0.247423	0.428497	2.136088
C	1.234147	2.137457	-0.612546
S	0.471221	0.816130	-1.486809
C	1.667694	2.888380	1.814609
H	1.454874	2.519768	2.836676
H	1.222009	3.901210	1.726239
H	2.767675	3.008788	1.726228
H	1.708773	2.959493	-1.161575
$end

$rem
JOBTYPE		SP
EXCHANGE	HF
CORRELATION	pRIMP2
BASIS		cc-pvtz
METHOD		rimp2
AUX_BASIS	rimp2-cc-pvtz
SOLVENT_METHOD	PCM
PURECART	11111
SYMMETRY	false
MEM_TOTAL	110000
SCF_CONVERGENCE = 6
THRESH=10
$end

$solvent
dielectric 4.90
$end
--------------------------------------------------------------

             Standard Nuclear Orientation (Angstroms)
    I     Atom           X                Y                Z
 ----------------------------------------------------------------
    1      C       0.7634750000    -3.8667250000    -0.1338970000
    2      C      -0.6032060000    -3.7039630000     0.1066690000
    3      C      -1.0504460000    -2.3570560000     0.1851540000
    4      H      -1.2830240000    -4.5610920000     0.2267090000
    5      C       0.0000000000    -1.4406640000     0.0000000000
    6      S       1.5210180000    -2.2869570000    -0.2682060000
    7      C      -2.4836100000    -1.9787430000     0.4376280000
    8      H      -3.1188750000    -2.8786780000     0.5497170000
    9      H      -2.9034640000    -1.3760150000    -0.3946640000
   10      H      -2.5937260000    -1.3757280000     1.3631100000
   11      H       1.3545220000    -4.7834370000    -0.2378800000
   12      C       0.0000000000     0.0000000000     0.0000000000
   13      C       0.4318290000     0.7478840000     1.0994460000
   14      C       1.1237990000     1.9463730000     0.7767210000
   15      H       0.2474230000     0.4284970000     2.1360880000
   16      C       1.2341470000     2.1374570000    -0.6125460000
   17      S       0.4712210000     0.8161300000    -1.4868090000
   18      C       1.6676940000     2.8883800000     1.8146090000
   19      H       1.4548740000     2.5197680000     2.8366760000
   20      H       1.2220090000     3.9012100000     1.7262390000
   21      H       2.7676750000     3.0087880000     1.7262280000
   22      H       1.7087730000     2.9594930000    -1.1615750000
 ----------------------------------------------------------------

   10   -1179.6685027243      5.19e-07  Convergence criterion met
 Total energy in the final basis set =    -1179.6685027243
        RIMP2         total energy =     -1181.6502317186 a.u.

                    Orbital Energies (a.u.)
 --------------------------------------------------------------

 Alpha MOs
 -- Occupied --
-91.9845 -91.9818 -11.2720 -11.2711 -11.2707 -11.2698 -11.2514 -11.2492
-11.2474 -11.2396 -11.2293 -11.2283  -8.9842  -8.9816  -6.6651  -6.6645
 -6.6639  -6.6625  -6.6619  -6.6613  -1.1802  -1.1485  -1.0410  -1.0215
 -0.9969  -0.9534  -0.9121  -0.8919  -0.7997  -0.7512  -0.7333  -0.6933
 -0.6604  -0.6169  -0.5831  -0.5792  -0.5698  -0.5688  -0.5510  -0.5317
 -0.5305  -0.5186  -0.5085  -0.4909  -0.4789  -0.4658  -0.4618  -0.3525
 -0.3341  -0.3180  -0.3009

          Ground-State Mulliken Net Atomic Charges

     Atom                 Charge (a.u.)
  ----------------------------------------
      1 C                    -0.208954
      2 C                    -0.253134
      3 C                     0.060158
      4 H                     0.182123
      5 C                    -0.066091
      6 S                     0.026504
      7 C                    -0.284097
      8 H                     0.106728
      9 H                     0.110603
     10 H                     0.108256
     11 H                     0.203782
     12 C                    -0.025845
     13 C                    -0.216040
     14 C                     0.023258
     15 H                     0.183934
     16 C                    -0.225457
     17 S                     0.026881
     18 C                    -0.269297
     19 H                     0.102772
     20 H                     0.107722
     21 H                     0.107707
     22 H                     0.198486
  ----------------------------------------
  Sum of atomic charges =     0.000000

                    Cartesian Multipole Moments
 -----------------------------------------------------------------
    Charge (ESU x 10^10)
                -0.0000
    Dipole Moment (Debye)
         X      -0.3157      Y       0.4962      Z       1.7545
       Tot       1.8504
    Quadrupole Moments (Debye-Ang)
        XX     -83.6498     XY       7.0070     YY     -72.1363
        XZ      -0.6106     YZ       0.4429     ZZ     -86.2892

 Total job time:  552.49s(wall), 548.97s(cpu)
        *  Thank you very much for using Q-Chem.  Have a nice day.  *
