 Q-Chem 5.4, Q-Chem, Inc., Pleasanton, CA (2021)
 Q-Chem 5.4.0 for Intel X86 EM64T Linux

User input:
--------------------------------------------------------------
$molecule
0 1
C	-0.763228	-3.866725	-0.135301
C	0.603311	-3.703963	0.106073
C	1.050423	-2.357056	0.185286
H	1.283188	-4.561092	0.225783
C	-0.000000	-1.440664	-0.000000
S	-1.521021	-2.286957	-0.268187
C	2.483507	-1.978743	0.438209
H	3.118798	-2.878678	0.550153
H	2.593381	-1.376015	1.363906
H	2.903516	-1.375728	-0.393798
H	-1.354194	-4.783437	-0.239740
C	0.000000	0.000000	0.000000
C	0.365003	0.782674	1.099446
C	0.949885	2.036912	0.776721
H	0.209135	0.448431	2.136088
C	1.043159	2.236886	-0.612546
S	0.398297	0.854094	-1.486809
C	1.409609	3.022738	1.814609
H	1.229726	2.636980	2.836676
H	0.877346	3.992870	1.726239
H	2.494910	3.238558	1.726228
H	1.444334	3.097160	-1.161575
$end

$rem
JOBTYPE		SP
EXCHANGE	HF
CORRELATION	pRIMP2
BASIS		cc-pvtz
METHOD		rimp2
AUX_BASIS	rimp2-cc-pvtz
SOLVENT_METHOD	PCM
PURECART	11111
SYMMETRY	false
MEM_TOTAL	110000
SCF_CONVERGENCE = 6
THRESH=10
$end

$solvent
dielectric 4.90
$end
--------------------------------------------------------------

             Standard Nuclear Orientation (Angstroms)
    I     Atom           X                Y                Z
 ----------------------------------------------------------------
    1      C      -0.7632280000    -3.8667250000    -0.1353010000
    2      C       0.6033110000    -3.7039630000     0.1060730000
    3      C       1.0504230000    -2.3570560000     0.1852860000
    4      H       1.2831880000    -4.5610920000     0.2257830000
    5      C       0.0000000000    -1.4406640000     0.0000000000
    6      S      -1.5210210000    -2.2869570000    -0.2681870000
    7      C       2.4835070000    -1.9787430000     0.4382090000
    8      H       3.1187980000    -2.8786780000     0.5501530000
    9      H       2.5933810000    -1.3760150000     1.3639060000
   10      H       2.9035160000    -1.3757280000    -0.3937980000
   11      H      -1.3541940000    -4.7834370000    -0.2397400000
   12      C       0.0000000000     0.0000000000     0.0000000000
   13      C       0.3650030000     0.7826740000     1.0994460000
   14      C       0.9498850000     2.0369120000     0.7767210000
   15      H       0.2091350000     0.4484310000     2.1360880000
   16      C       1.0431590000     2.2368860000    -0.6125460000
   17      S       0.3982970000     0.8540940000    -1.4868090000
   18      C       1.4096090000     3.0227380000     1.8146090000
   19      H       1.2297260000     2.6369800000     2.8366760000
   20      H       0.8773460000     3.9928700000     1.7262390000
   21      H       2.4949100000     3.2385580000     1.7262280000
   22      H       1.4443340000     3.0971600000    -1.1615750000
 ----------------------------------------------------------------

   10   -1179.6741663904      5.64e-07  Convergence criterion met
 Total energy in the final basis set =    -1179.6741663904
        RIMP2         total energy =     -1181.6560065803 a.u.

                    Orbital Energies (a.u.)
 --------------------------------------------------------------

 Alpha MOs
 -- Occupied --
-91.9850 -91.9816 -11.2735 -11.2724 -11.2704 -11.2693 -11.2524 -11.2515
-11.2461 -11.2410 -11.2296 -11.2285  -8.9846  -8.9814  -6.6654  -6.6649
 -6.6643  -6.6623  -6.6617  -6.6611  -1.1794  -1.1490  -1.0407  -1.0217
 -0.9972  -0.9542  -0.9129  -0.8919  -0.7991  -0.7523  -0.7328  -0.6958
 -0.6607  -0.6164  -0.5821  -0.5799  -0.5718  -0.5684  -0.5513  -0.5317
 -0.5287  -0.5210  -0.5101  -0.4910  -0.4815  -0.4644  -0.4600  -0.3445
 -0.3398  -0.3201  -0.3028

          Ground-State Mulliken Net Atomic Charges

     Atom                 Charge (a.u.)
  ----------------------------------------
      1 C                    -0.214616
      2 C                    -0.251043
      3 C                     0.072106
      4 H                     0.183735
      5 C                    -0.035552
      6 S                     0.023334
      7 C                    -0.282013
      8 H                     0.109910
      9 H                     0.109260
     10 H                     0.112748
     11 H                     0.203357
     12 C                    -0.049857
     13 C                    -0.250060
     14 C                     0.038357
     15 H                     0.188440
     16 C                    -0.235216
     17 S                     0.029334
     18 C                    -0.269672
     19 H                     0.102875
     20 H                     0.108348
     21 H                     0.107437
     22 H                     0.198787
  ----------------------------------------
  Sum of atomic charges =     0.000000

                    Cartesian Multipole Moments
 -----------------------------------------------------------------
    Charge (ESU x 10^10)
                -0.0000
    Dipole Moment (Debye)
         X       2.4369      Y       0.4425      Z       1.7608
       Tot       3.0389
    Quadrupole Moments (Debye-Ang)
        XX     -84.5413     XY       2.0809     YY     -71.1016
        XZ       1.4999     YZ       0.5053     ZZ     -86.4129

 Total job time:  569.91s(wall), 567.17s(cpu)
        *  Thank you very much for using Q-Chem.  Have a nice day.  *
