 Q-Chem 5.4, Q-Chem, Inc., Pleasanton, CA (2021)
 Q-Chem 5.4.0 for Intel X86 EM64T Linux

User input:
--------------------------------------------------------------
$molecule
0 1
C	0.775127	-3.866725	0.000713
C	-0.612565	-3.703963	0.000302
C	-1.066639	-2.357056	-0.000067
H	-1.302900	-4.561092	0.000470
C	0.000000	-1.440664	0.000000
S	1.544483	-2.286957	-0.000009
C	-2.521872	-1.978743	-0.000295
H	-3.166949	-2.878678	-0.000221
H	-2.790821	-1.376015	-0.892850
H	-2.791023	-1.375728	0.892005
H	1.375251	-4.783437	0.000945
C	0.000000	0.000000	0.000000
C	0.223548	0.834165	1.099446
C	0.581748	2.170912	0.776721
H	0.128089	0.477934	2.136088
C	0.638880	2.384045	-0.612546
S	0.243934	0.910282	-1.486809
C	0.863301	3.221592	1.814609
H	0.753137	2.810458	2.836676
H	0.170663	4.084559	1.726239
H	1.894637	3.622593	1.726228
H	0.884575	3.300913	-1.161575
$end

$rem
JOBTYPE		SP
EXCHANGE	HF
CORRELATION	pRIMP2
BASIS		cc-pvtz
METHOD		rimp2
AUX_BASIS	rimp2-cc-pvtz
SOLVENT_METHOD	PCM
PURECART	11111
SYMMETRY	false
MEM_TOTAL	110000
SCF_CONVERGENCE = 6
THRESH=10
$end

$solvent
dielectric 4.90
$end
--------------------------------------------------------------

             Standard Nuclear Orientation (Angstroms)
    I     Atom           X                Y                Z
 ----------------------------------------------------------------
    1      C       0.7751270000    -3.8667250000     0.0007130000
    2      C      -0.6125650000    -3.7039630000     0.0003020000
    3      C      -1.0666390000    -2.3570560000    -0.0000670000
    4      H      -1.3029000000    -4.5610920000     0.0004700000
    5      C       0.0000000000    -1.4406640000     0.0000000000
    6      S       1.5444830000    -2.2869570000    -0.0000090000
    7      C      -2.5218720000    -1.9787430000    -0.0002950000
    8      H      -3.1669490000    -2.8786780000    -0.0002210000
    9      H      -2.7908210000    -1.3760150000    -0.8928500000
   10      H      -2.7910230000    -1.3757280000     0.8920050000
   11      H       1.3752510000    -4.7834370000     0.0009450000
   12      C       0.0000000000     0.0000000000     0.0000000000
   13      C       0.2235480000     0.8341650000     1.0994460000
   14      C       0.5817480000     2.1709120000     0.7767210000
   15      H       0.1280890000     0.4779340000     2.1360880000
   16      C       0.6388800000     2.3840450000    -0.6125460000
   17      S       0.2439340000     0.9102820000    -1.4868090000
   18      C       0.8633010000     3.2215920000     1.8146090000
   19      H       0.7531370000     2.8104580000     2.8366760000
   20      H       0.1706630000     4.0845590000     1.7262390000
   21      H       1.8946370000     3.6225930000     1.7262280000
   22      H       0.8845750000     3.3009130000    -1.1615750000
 ----------------------------------------------------------------

   10   -1179.6814988303      5.01e-07  Convergence criterion met
 Total energy in the final basis set =    -1179.6814988303
        RIMP2         total energy =     -1181.6599715383 a.u.

                    Orbital Energies (a.u.)
 --------------------------------------------------------------

 Alpha MOs
 -- Occupied --
-91.9849 -91.9840 -11.2769 -11.2721 -11.2719 -11.2660 -11.2529 -11.2508
-11.2435 -11.2412 -11.2292 -11.2290  -8.9845  -8.9837  -6.6654  -6.6648
 -6.6645  -6.6642  -6.6640  -6.6634  -1.1786  -1.1493  -1.0400  -1.0228
 -0.9970  -0.9536  -0.9133  -0.8921  -0.8005  -0.7535  -0.7307  -0.6941
 -0.6620  -0.6164  -0.5826  -0.5791  -0.5707  -0.5690  -0.5518  -0.5317
 -0.5296  -0.5195  -0.5076  -0.4919  -0.4859  -0.4640  -0.4634  -0.3482
 -0.3362  -0.3120  -0.3116

          Ground-State Mulliken Net Atomic Charges

     Atom                 Charge (a.u.)
  ----------------------------------------
      1 C                    -0.206170
      2 C                    -0.251829
      3 C                     0.056039
      4 H                     0.183411
      5 C                    -0.062039
      6 S                     0.026135
      7 C                    -0.282953
      8 H                     0.106591
      9 H                     0.110450
     10 H                     0.109703
     11 H                     0.204386
     12 C                    -0.003157
     13 C                    -0.236608
     14 C                     0.025540
     15 H                     0.185329
     16 C                    -0.237364
     17 S                     0.026838
     18 C                    -0.270781
     19 H                     0.102686
     20 H                     0.107748
     21 H                     0.108213
     22 H                     0.197830
  ----------------------------------------
  Sum of atomic charges =     0.000000

                    Cartesian Multipole Moments
 -----------------------------------------------------------------
    Charge (ESU x 10^10)
                -0.0000
    Dipole Moment (Debye)
         X      -0.9776      Y       0.2840      Z       1.4573
       Tot       1.7776
    Quadrupole Moments (Debye-Ang)
        XX     -85.4023     XY       4.8748     YY     -69.5435
        XZ       0.2874     YZ       0.9749     ZZ     -86.6819

 Total job time:  548.53s(wall), 544.86s(cpu)
        *  Thank you very much for using Q-Chem.  Have a nice day.  *
