 Q-Chem 5.4, Q-Chem, Inc., Pleasanton, CA (2021)
 Q-Chem 5.4.0 for Intel X86 EM64T Linux

User input:
--------------------------------------------------------------
$molecule
0 1
C	-0.133897	-3.866725	-0.763475
C	0.106669	-3.703963	0.603206
C	0.185154	-2.357056	1.050446
H	0.226709	-4.561092	1.283024
C	0.000000	-1.440664	0.000000
S	-0.268206	-2.286957	-1.521018
C	0.437628	-1.978743	2.483610
H	0.549717	-2.878678	3.118875
H	-0.394664	-1.376015	2.903464
H	1.363110	-1.375728	2.593726
H	-0.237880	-4.783437	-1.354522
C	0.000000	0.000000	0.000000
C	0.223548	0.834165	1.099446
C	0.581748	2.170912	0.776721
H	0.128089	0.477934	2.136088
C	0.638880	2.384045	-0.612546
S	0.243934	0.910282	-1.486809
C	0.863301	3.221592	1.814609
H	0.753137	2.810458	2.836676
H	0.170663	4.084559	1.726239
H	1.894637	3.622593	1.726228
H	0.884575	3.300913	-1.161575
$end

$rem
JOBTYPE		SP
EXCHANGE	HF
CORRELATION	pRIMP2
BASIS		cc-pvtz
METHOD		rimp2
AUX_BASIS	rimp2-cc-pvtz
SOLVENT_METHOD	PCM
PURECART	11111
SYMMETRY	false
MEM_TOTAL	110000
SCF_CONVERGENCE = 6
THRESH=10
$end

$solvent
dielectric 4.90
$end
--------------------------------------------------------------

             Standard Nuclear Orientation (Angstroms)
    I     Atom           X                Y                Z
 ----------------------------------------------------------------
    1      C      -0.1338970000    -3.8667250000    -0.7634750000
    2      C       0.1066690000    -3.7039630000     0.6032060000
    3      C       0.1851540000    -2.3570560000     1.0504460000
    4      H       0.2267090000    -4.5610920000     1.2830240000
    5      C       0.0000000000    -1.4406640000     0.0000000000
    6      S      -0.2682060000    -2.2869570000    -1.5210180000
    7      C       0.4376280000    -1.9787430000     2.4836100000
    8      H       0.5497170000    -2.8786780000     3.1188750000
    9      H      -0.3946640000    -1.3760150000     2.9034640000
   10      H       1.3631100000    -1.3757280000     2.5937260000
   11      H      -0.2378800000    -4.7834370000    -1.3545220000
   12      C       0.0000000000     0.0000000000     0.0000000000
   13      C       0.2235480000     0.8341650000     1.0994460000
   14      C       0.5817480000     2.1709120000     0.7767210000
   15      H       0.1280890000     0.4779340000     2.1360880000
   16      C       0.6388800000     2.3840450000    -0.6125460000
   17      S       0.2439340000     0.9102820000    -1.4868090000
   18      C       0.8633010000     3.2215920000     1.8146090000
   19      H       0.7531370000     2.8104580000     2.8366760000
   20      H       0.1706630000     4.0845590000     1.7262390000
   21      H       1.8946370000     3.6225930000     1.7262280000
   22      H       0.8845750000     3.3009130000    -1.1615750000
 ----------------------------------------------------------------

   10   -1179.6809131260      4.92e-07  Convergence criterion met
 Total energy in the final basis set =    -1179.6809131260
        RIMP2         total energy =     -1181.6622476854 a.u.

                    Orbital Energies (a.u.)
 --------------------------------------------------------------

 Alpha MOs
 -- Occupied --
-91.9855 -91.9842 -11.2824 -11.2786 -11.2722 -11.2654 -11.2534 -11.2523
-11.2437 -11.2407 -11.2316 -11.2295  -8.9854  -8.9843  -6.6663  -6.6658
 -6.6652  -6.6651  -6.6647  -6.6640  -1.1820  -1.1503  -1.0423  -1.0277
 -0.9958  -0.9563  -0.9147  -0.8947  -0.8030  -0.7570  -0.7272  -0.7012
 -0.6618  -0.6141  -0.5911  -0.5822  -0.5703  -0.5639  -0.5522  -0.5403
 -0.5293  -0.5240  -0.5044  -0.4916  -0.4865  -0.4770  -0.4508  -0.3700
 -0.3478  -0.3374  -0.2686

          Ground-State Mulliken Net Atomic Charges

     Atom                 Charge (a.u.)
  ----------------------------------------
      1 C                    -0.214944
      2 C                    -0.250860
      3 C                     0.066162
      4 H                     0.184530
      5 C                    -0.042010
      6 S                     0.009039
      7 C                    -0.314540
      8 H                     0.118440
      9 H                     0.107399
     10 H                     0.114337
     11 H                     0.207256
     12 C                     0.041496
     13 C                    -0.269705
     14 C                     0.039557
     15 H                     0.195265
     16 C                    -0.254235
     17 S                     0.014424
     18 C                    -0.270367
     19 H                     0.101528
     20 H                     0.108583
     21 H                     0.109030
     22 H                     0.199617
  ----------------------------------------
  Sum of atomic charges =     0.000000

                    Cartesian Multipole Moments
 -----------------------------------------------------------------
    Charge (ESU x 10^10)
                -0.0000
    Dipole Moment (Debye)
         X       0.7733      Y       0.1951      Z       2.9434
       Tot       3.0496
    Quadrupole Moments (Debye-Ang)
        XX     -91.8098     XY       2.3966     YY     -69.1377
        XZ       1.4171     YZ      -1.2062     ZZ     -80.2630

 Total job time:  568.47s(wall), 563.85s(cpu)
        *  Thank you very much for using Q-Chem.  Have a nice day.  *
