 Q-Chem 5.4, Q-Chem, Inc., Pleasanton, CA (2021)
 Q-Chem 5.4.0 for Intel X86 EM64T Linux

User input:
--------------------------------------------------------------
$molecule
0 1
C	0.728138	-3.866725	0.265779
C	-0.575726	-3.703963	-0.209225
C	-1.002290	-2.357056	-0.364875
H	-1.224486	-4.561092	-0.445176
C	0.000000	-1.440664	0.000000
S	1.451343	-2.286957	0.528236
C	-2.369683	-1.978743	-0.862808
H	-2.975883	-2.878678	-1.083368
H	-2.317142	-1.376015	-1.793522
H	-2.927787	-1.375728	-0.116375
H	1.291990	-4.783437	0.471251
C	0.000000	0.000000	0.000000
C	0.223548	0.834165	1.099446
C	0.581748	2.170912	0.776721
H	0.128089	0.477934	2.136088
C	0.638880	2.384045	-0.612546
S	0.243934	0.910282	-1.486809
C	0.863301	3.221592	1.814609
H	0.753137	2.810458	2.836676
H	0.170663	4.084559	1.726239
H	1.894637	3.622593	1.726228
H	0.884575	3.300913	-1.161575
$end

$rem
JOBTYPE		SP
EXCHANGE	HF
CORRELATION	pRIMP2
BASIS		cc-pvtz
METHOD		rimp2
AUX_BASIS	rimp2-cc-pvtz
SOLVENT_METHOD	PCM
PURECART	11111
SYMMETRY	false
MEM_TOTAL	110000
SCF_CONVERGENCE = 6
THRESH=10
$end

$solvent
dielectric 4.90
$end
--------------------------------------------------------------

             Standard Nuclear Orientation (Angstroms)
    I     Atom           X                Y                Z
 ----------------------------------------------------------------
    1      C       0.7281380000    -3.8667250000     0.2657790000
    2      C      -0.5757260000    -3.7039630000    -0.2092250000
    3      C      -1.0022900000    -2.3570560000    -0.3648750000
    4      H      -1.2244860000    -4.5610920000    -0.4451760000
    5      C       0.0000000000    -1.4406640000     0.0000000000
    6      S       1.4513430000    -2.2869570000     0.5282360000
    7      C      -2.3696830000    -1.9787430000    -0.8628080000
    8      H      -2.9758830000    -2.8786780000    -1.0833680000
    9      H      -2.3171420000    -1.3760150000    -1.7935220000
   10      H      -2.9277870000    -1.3757280000    -0.1163750000
   11      H       1.2919900000    -4.7834370000     0.4712510000
   12      C       0.0000000000     0.0000000000     0.0000000000
   13      C       0.2235480000     0.8341650000     1.0994460000
   14      C       0.5817480000     2.1709120000     0.7767210000
   15      H       0.1280890000     0.4779340000     2.1360880000
   16      C       0.6388800000     2.3840450000    -0.6125460000
   17      S       0.2439340000     0.9102820000    -1.4868090000
   18      C       0.8633010000     3.2215920000     1.8146090000
   19      H       0.7531370000     2.8104580000     2.8366760000
   20      H       0.1706630000     4.0845590000     1.7262390000
   21      H       1.8946370000     3.6225930000     1.7262280000
   22      H       0.8845750000     3.3009130000    -1.1615750000
 ----------------------------------------------------------------

   10   -1179.6826003253      5.04e-07  Convergence criterion met
 Total energy in the final basis set =    -1179.6826003253
        RIMP2         total energy =     -1181.6611875852 a.u.

                    Orbital Energies (a.u.)
 --------------------------------------------------------------

 Alpha MOs
 -- Occupied --
-91.9849 -91.9847 -11.2776 -11.2725 -11.2720 -11.2659 -11.2527 -11.2510
-11.2431 -11.2415 -11.2292 -11.2290  -8.9845  -8.9843  -6.6653  -6.6652
 -6.6648  -6.6646  -6.6642  -6.6640  -1.1789  -1.1494  -1.0402  -1.0229
 -0.9978  -0.9529  -0.9140  -0.8921  -0.8003  -0.7565  -0.7281  -0.6937
 -0.6622  -0.6165  -0.5827  -0.5789  -0.5721  -0.5693  -0.5518  -0.5328
 -0.5277  -0.5193  -0.5076  -0.4930  -0.4864  -0.4655  -0.4613  -0.3460
 -0.3386  -0.3294  -0.2957

          Ground-State Mulliken Net Atomic Charges

     Atom                 Charge (a.u.)
  ----------------------------------------
      1 C                    -0.209026
      2 C                    -0.250889
      3 C                     0.045225
      4 H                     0.183649
      5 C                    -0.046383
      6 S                     0.026312
      7 C                    -0.283051
      8 H                     0.107038
      9 H                     0.109261
     10 H                     0.110833
     11 H                     0.204453
     12 C                     0.007500
     13 C                    -0.260504
     14 C                     0.034102
     15 H                     0.187708
     16 C                    -0.239075
     17 S                     0.026503
     18 C                    -0.270626
     19 H                     0.102791
     20 H                     0.107808
     21 H                     0.108400
     22 H                     0.197971
  ----------------------------------------
  Sum of atomic charges =     0.000000

                    Cartesian Multipole Moments
 -----------------------------------------------------------------
    Charge (ESU x 10^10)
                -0.0000
    Dipole Moment (Debye)
         X      -0.8859      Y       0.2630      Z       0.9311
       Tot       1.3119
    Quadrupole Moments (Debye-Ang)
        XX     -86.1648     XY       4.7426     YY     -69.4899
        XZ       2.4155     YZ       1.7205     ZZ     -85.9139

 Total job time:  550.50s(wall), 546.59s(cpu)
        *  Thank you very much for using Q-Chem.  Have a nice day.  *
