 Q-Chem 5.4, Q-Chem, Inc., Pleasanton, CA (2021)
 Q-Chem 5.4.0 for Intel X86 EM64T Linux

User input:
--------------------------------------------------------------
$molecule
0 1
C	0.388181	-3.866725	-0.670924
C	-0.306020	-3.703963	0.530648
C	-0.533378	-2.357056	0.923703
H	-0.651043	-4.561092	1.128579
C	0.000000	-1.440664	0.000000
S	0.772234	-2.286957	-1.337567
C	-1.261192	-1.978743	2.183857
H	-1.583666	-2.878678	2.742548
H	-2.168641	-1.376015	1.970497
H	-0.623012	-1.375728	2.863099
H	0.688443	-4.783437	-1.190530
C	0.000000	0.000000	0.000000
C	0.431829	0.747884	1.099446
C	1.123799	1.946373	0.776721
H	0.247423	0.428497	2.136088
C	1.234147	2.137457	-0.612546
S	0.471221	0.816130	-1.486809
C	1.667694	2.888380	1.814609
H	1.454874	2.519768	2.836676
H	1.222009	3.901210	1.726239
H	2.767675	3.008788	1.726228
H	1.708773	2.959493	-1.161575
$end

$rem
JOBTYPE		SP
EXCHANGE	HF
CORRELATION	pRIMP2
BASIS		cc-pvtz
METHOD		rimp2
AUX_BASIS	rimp2-cc-pvtz
SOLVENT_METHOD	PCM
PURECART	11111
SYMMETRY	false
MEM_TOTAL	110000
SCF_CONVERGENCE = 6
THRESH=10
$end

$solvent
dielectric 4.90
$end
--------------------------------------------------------------

             Standard Nuclear Orientation (Angstroms)
    I     Atom           X                Y                Z
 ----------------------------------------------------------------
    1      C       0.3881810000    -3.8667250000    -0.6709240000
    2      C      -0.3060200000    -3.7039630000     0.5306480000
    3      C      -0.5333780000    -2.3570560000     0.9237030000
    4      H      -0.6510430000    -4.5610920000     1.1285790000
    5      C       0.0000000000    -1.4406640000     0.0000000000
    6      S       0.7722340000    -2.2869570000    -1.3375670000
    7      C      -1.2611920000    -1.9787430000     2.1838570000
    8      H      -1.5836660000    -2.8786780000     2.7425480000
    9      H      -2.1686410000    -1.3760150000     1.9704970000
   10      H      -0.6230120000    -1.3757280000     2.8630990000
   11      H       0.6884430000    -4.7834370000    -1.1905300000
   12      C       0.0000000000     0.0000000000     0.0000000000
   13      C       0.4318290000     0.7478840000     1.0994460000
   14      C       1.1237990000     1.9463730000     0.7767210000
   15      H       0.2474230000     0.4284970000     2.1360880000
   16      C       1.2341470000     2.1374570000    -0.6125460000
   17      S       0.4712210000     0.8161300000    -1.4868090000
   18      C       1.6676940000     2.8883800000     1.8146090000
   19      H       1.4548740000     2.5197680000     2.8366760000
   20      H       1.2220090000     3.9012100000     1.7262390000
   21      H       2.7676750000     3.0087880000     1.7262280000
   22      H       1.7087730000     2.9594930000    -1.1615750000
 ----------------------------------------------------------------

   10   -1179.6680105696      5.26e-07  Convergence criterion met
 Total energy in the final basis set =    -1179.6680105696
        RIMP2         total energy =     -1181.6521178953 a.u.

                    Orbital Energies (a.u.)
 --------------------------------------------------------------

 Alpha MOs
 -- Occupied --
-91.9863 -91.9830 -11.2782 -11.2773 -11.2712 -11.2655 -11.2538 -11.2480
-11.2460 -11.2412 -11.2302 -11.2293  -8.9863  -8.9828  -6.6672  -6.6666
 -6.6660  -6.6637  -6.6631  -6.6625  -1.1832  -1.1491  -1.0434  -1.0240
 -0.9964  -0.9564  -0.9117  -0.8940  -0.8024  -0.7541  -0.7302  -0.6985
 -0.6597  -0.6151  -0.5897  -0.5811  -0.5703  -0.5637  -0.5519  -0.5387
 -0.5312  -0.5206  -0.5070  -0.4903  -0.4824  -0.4751  -0.4517  -0.3662
 -0.3429  -0.3374  -0.2703

          Ground-State Mulliken Net Atomic Charges

     Atom                 Charge (a.u.)
  ----------------------------------------
      1 C                    -0.232380
      2 C                    -0.244348
      3 C                     0.030913
      4 H                     0.182744
      5 C                    -0.015909
      6 S                     0.016297
      7 C                    -0.302896
      8 H                     0.112179
      9 H                     0.113449
     10 H                     0.103418
     11 H                     0.204284
     12 C                    -0.014117
     13 C                    -0.198718
     14 C                     0.011008
     15 H                     0.194446
     16 C                    -0.219198
     17 S                     0.009300
     18 C                    -0.270308
     19 H                     0.101932
     20 H                     0.108755
     21 H                     0.108289
     22 H                     0.200860
  ----------------------------------------
  Sum of atomic charges =     0.000000

                    Cartesian Multipole Moments
 -----------------------------------------------------------------
    Charge (ESU x 10^10)
                -0.0000
    Dipole Moment (Debye)
         X       0.4497      Y       0.7566      Z       2.7194
       Tot       2.8583
    Quadrupole Moments (Debye-Ang)
        XX     -88.2052     XY       6.1039     YY     -72.6479
        XZ      -2.2637     YZ      -1.0831     ZZ     -81.6941

 Total job time:  558.60s(wall), 554.96s(cpu)
        *  Thank you very much for using Q-Chem.  Have a nice day.  *
