 Q-Chem 5.4, Q-Chem, Inc., Pleasanton, CA (2021)
 Q-Chem 5.4.0 for Intel X86 EM64T Linux

User input:
--------------------------------------------------------------
$molecule
0 1
C	-0.386946	-3.866725	-0.671636
C	0.306544	-3.703963	0.530345
C	0.533261	-2.357056	0.923770
H	0.651857	-4.561092	1.128109
C	-0.000000	-1.440664	-0.000000
S	-0.772250	-2.286957	-1.337557
C	1.260680	-1.978743	2.184153
H	1.583283	-2.878678	2.742769
H	0.622180	-1.376015	2.863347
H	2.168011	-1.375728	1.971094
H	-0.686807	-4.783437	-1.191474
C	0.000000	0.000000	0.000000
C	0.365003	0.782674	1.099446
C	0.949885	2.036912	0.776721
H	0.209135	0.448431	2.136088
C	1.043159	2.236886	-0.612546
S	0.398297	0.854094	-1.486809
C	1.409609	3.022738	1.814609
H	1.229726	2.636980	2.836676
H	0.877346	3.992870	1.726239
H	2.494910	3.238558	1.726228
H	1.444334	3.097160	-1.161575
$end

$rem
JOBTYPE		SP
EXCHANGE	HF
CORRELATION	pRIMP2
BASIS		cc-pvtz
METHOD		rimp2
AUX_BASIS	rimp2-cc-pvtz
SOLVENT_METHOD	PCM
PURECART	11111
SYMMETRY	false
MEM_TOTAL	110000
SCF_CONVERGENCE = 6
THRESH=10
$end

$solvent
dielectric 4.90
$end
--------------------------------------------------------------

             Standard Nuclear Orientation (Angstroms)
    I     Atom           X                Y                Z
 ----------------------------------------------------------------
    1      C      -0.3869460000    -3.8667250000    -0.6716360000
    2      C       0.3065440000    -3.7039630000     0.5303450000
    3      C       0.5332610000    -2.3570560000     0.9237700000
    4      H       0.6518570000    -4.5610920000     1.1281090000
    5      C       0.0000000000    -1.4406640000     0.0000000000
    6      S      -0.7722500000    -2.2869570000    -1.3375570000
    7      C       1.2606800000    -1.9787430000     2.1841530000
    8      H       1.5832830000    -2.8786780000     2.7427690000
    9      H       0.6221800000    -1.3760150000     2.8633470000
   10      H       2.1680110000    -1.3757280000     1.9710940000
   11      H      -0.6868070000    -4.7834370000    -1.1914740000
   12      C       0.0000000000     0.0000000000     0.0000000000
   13      C       0.3650030000     0.7826740000     1.0994460000
   14      C       0.9498850000     2.0369120000     0.7767210000
   15      H       0.2091350000     0.4484310000     2.1360880000
   16      C       1.0431590000     2.2368860000    -0.6125460000
   17      S       0.3982970000     0.8540940000    -1.4868090000
   18      C       1.4096090000     3.0227380000     1.8146090000
   19      H       1.2297260000     2.6369800000     2.8366760000
   20      H       0.8773460000     3.9928700000     1.7262390000
   21      H       2.4949100000     3.2385580000     1.7262280000
   22      H       1.4443340000     3.0971600000    -1.1615750000
 ----------------------------------------------------------------

   10   -1179.6731957728      5.13e-07  Convergence criterion met
 Total energy in the final basis set =    -1179.6731957728
        RIMP2         total energy =     -1181.6563096290 a.u.

                    Orbital Energies (a.u.)
 --------------------------------------------------------------

 Alpha MOs
 -- Occupied --
-91.9849 -91.9823 -11.2779 -11.2768 -11.2709 -11.2682 -11.2524 -11.2519
-11.2436 -11.2426 -11.2299 -11.2298  -8.9848  -8.9824  -6.6657  -6.6651
 -6.6645  -6.6633  -6.6628  -6.6622  -1.1818  -1.1496  -1.0422  -1.0257
 -0.9960  -0.9554  -0.9138  -0.8938  -0.8011  -0.7556  -0.7293  -0.7003
 -0.6605  -0.6148  -0.5902  -0.5813  -0.5709  -0.5630  -0.5512  -0.5391
 -0.5285  -0.5235  -0.5062  -0.4913  -0.4826  -0.4723  -0.4541  -0.3615
 -0.3450  -0.3390  -0.2725

          Ground-State Mulliken Net Atomic Charges

     Atom                 Charge (a.u.)
  ----------------------------------------
      1 C                    -0.214530
      2 C                    -0.249053
      3 C                     0.060854
      4 H                     0.184172
      5 C                    -0.032583
      6 S                     0.011023
      7 C                    -0.305664
      8 H                     0.115793
      9 H                     0.105471
     10 H                     0.118202
     11 H                     0.205704
     12 C                     0.016956
     13 C                    -0.295159
     14 C                     0.055262
     15 H                     0.194585
     16 C                    -0.248485
     17 S                     0.028502
     18 C                    -0.269444
     19 H                     0.102170
     20 H                     0.108941
     21 H                     0.108610
     22 H                     0.198672
  ----------------------------------------
  Sum of atomic charges =     0.000000

                    Cartesian Multipole Moments
 -----------------------------------------------------------------
    Charge (ESU x 10^10)
                -0.0000
    Dipole Moment (Debye)
         X       1.6656      Y       0.3572      Z       2.8255
       Tot       3.2993
    Quadrupole Moments (Debye-Ang)
        XX     -89.0546     XY       3.2316     YY     -70.8210
        XZ       3.2356     YZ      -1.0061     ZZ     -81.8291

 Total job time:  609.07s(wall), 605.53s(cpu)
        *  Thank you very much for using Q-Chem.  Have a nice day.  *
