 Q-Chem 5.4, Q-Chem, Inc., Pleasanton, CA (2021)
 Q-Chem 5.4.0 for Intel X86 EM64T Linux

User input:
--------------------------------------------------------------
$molecule
0 1
C	-0.133897	-3.866725	-0.763475
C	0.106669	-3.703963	0.603206
C	0.185154	-2.357056	1.050446
H	0.226709	-4.561092	1.283024
C	-0.000000	-1.440664	-0.000000
S	-0.268206	-2.286957	-1.521018
C	0.437628	-1.978743	2.483610
H	0.549717	-2.878678	3.118875
H	-0.394664	-1.376015	2.903464
H	1.363110	-1.375728	2.593726
H	-0.237880	-4.783437	-1.354522
C	0.000000	0.000000	0.000000
C	0.365003	0.782674	1.099446
C	0.949885	2.036912	0.776721
H	0.209135	0.448431	2.136088
C	1.043159	2.236886	-0.612546
S	0.398297	0.854094	-1.486809
C	1.409609	3.022738	1.814609
H	1.229726	2.636980	2.836676
H	0.877346	3.992870	1.726239
H	2.494910	3.238558	1.726228
H	1.444334	3.097160	-1.161575
$end

$rem
JOBTYPE		SP
EXCHANGE	HF
CORRELATION	pRIMP2
BASIS		cc-pvtz
METHOD		rimp2
AUX_BASIS	rimp2-cc-pvtz
SOLVENT_METHOD	PCM
PURECART	11111
SYMMETRY	false
MEM_TOTAL	110000
SCF_CONVERGENCE = 6
THRESH=10
$end

$solvent
dielectric 4.90
$end
--------------------------------------------------------------

             Standard Nuclear Orientation (Angstroms)
    I     Atom           X                Y                Z
 ----------------------------------------------------------------
    1      C      -0.1338970000    -3.8667250000    -0.7634750000
    2      C       0.1066690000    -3.7039630000     0.6032060000
    3      C       0.1851540000    -2.3570560000     1.0504460000
    4      H       0.2267090000    -4.5610920000     1.2830240000
    5      C       0.0000000000    -1.4406640000     0.0000000000
    6      S      -0.2682060000    -2.2869570000    -1.5210180000
    7      C       0.4376280000    -1.9787430000     2.4836100000
    8      H       0.5497170000    -2.8786780000     3.1188750000
    9      H      -0.3946640000    -1.3760150000     2.9034640000
   10      H       1.3631100000    -1.3757280000     2.5937260000
   11      H      -0.2378800000    -4.7834370000    -1.3545220000
   12      C       0.0000000000     0.0000000000     0.0000000000
   13      C       0.3650030000     0.7826740000     1.0994460000
   14      C       0.9498850000     2.0369120000     0.7767210000
   15      H       0.2091350000     0.4484310000     2.1360880000
   16      C       1.0431590000     2.2368860000    -0.6125460000
   17      S       0.3982970000     0.8540940000    -1.4868090000
   18      C       1.4096090000     3.0227380000     1.8146090000
   19      H       1.2297260000     2.6369800000     2.8366760000
   20      H       0.8773460000     3.9928700000     1.7262390000
   21      H       2.4949100000     3.2385580000     1.7262280000
   22      H       1.4443340000     3.0971600000    -1.1615750000
 ----------------------------------------------------------------

   10   -1179.6722168131      4.86e-07  Convergence criterion met
 Total energy in the final basis set =    -1179.6722168131
        RIMP2         total energy =     -1181.6558871636 a.u.

                    Orbital Energies (a.u.)
 --------------------------------------------------------------

 Alpha MOs
 -- Occupied --
-91.9851 -91.9825 -11.2796 -11.2783 -11.2701 -11.2684 -11.2527 -11.2510
-11.2433 -11.2428 -11.2310 -11.2299  -8.9851  -8.9827  -6.6660  -6.6654
 -6.6648  -6.6637  -6.6631  -6.6624  -1.1827  -1.1498  -1.0428  -1.0271
 -0.9958  -0.9560  -0.9142  -0.8946  -0.8021  -0.7567  -0.7277  -0.7015
 -0.6606  -0.6141  -0.5919  -0.5822  -0.5705  -0.5633  -0.5518  -0.5406
 -0.5291  -0.5239  -0.5046  -0.4913  -0.4836  -0.4762  -0.4500  -0.3696
 -0.3480  -0.3365  -0.2676

          Ground-State Mulliken Net Atomic Charges

     Atom                 Charge (a.u.)
  ----------------------------------------
      1 C                    -0.219266
      2 C                    -0.248298
      3 C                     0.059024
      4 H                     0.184416
      5 C                    -0.036522
      6 S                     0.006897
      7 C                    -0.313440
      8 H                     0.117382
      9 H                     0.107014
     10 H                     0.112776
     11 H                     0.206344
     12 C                     0.033691
     13 C                    -0.271883
     14 C                     0.043160
     15 H                     0.196723
     16 C                    -0.247225
     17 S                     0.019204
     18 C                    -0.269327
     19 H                     0.101784
     20 H                     0.108840
     21 H                     0.108774
     22 H                     0.199933
  ----------------------------------------
  Sum of atomic charges =     0.000000

                    Cartesian Multipole Moments
 -----------------------------------------------------------------
    Charge (ESU x 10^10)
                -0.0000
    Dipole Moment (Debye)
         X       1.1695      Y       0.3925      Z       2.9752
       Tot       3.2208
    Quadrupole Moments (Debye-Ang)
        XX     -90.4872     XY       3.9478     YY     -70.8885
        XZ       1.5417     YZ      -1.3320     ZZ     -80.2986

 Total job time:  569.56s(wall), 565.95s(cpu)
        *  Thank you very much for using Q-Chem.  Have a nice day.  *
