 Q-Chem 5.4, Q-Chem, Inc., Pleasanton, CA (2021)
 Q-Chem 5.4.0 for Intel X86 EM64T Linux

User input:
--------------------------------------------------------------
$molecule
0 1
C	-0.593324	-3.866725	-0.498788
C	0.469446	-3.703963	0.393517
C	0.817050	-2.357056	0.685674
H	0.998381	-4.561092	0.837128
C	0.000000	-1.440664	0.000000
S	-1.183149	-2.286957	-0.992768
C	1.931676	-1.978743	1.621254
H	2.425882	-2.878678	2.035845
H	1.563980	-1.376015	2.477868
H	2.711417	-1.375728	1.110719
H	-1.052896	-4.783437	-0.884718
C	0.000000	0.000000	0.000000
C	0.431829	0.747884	1.099446
C	1.123799	1.946373	0.776721
H	0.247423	0.428497	2.136088
C	1.234147	2.137457	-0.612546
S	0.471221	0.816130	-1.486809
C	1.667694	2.888380	1.814609
H	1.454874	2.519768	2.836676
H	1.222009	3.901210	1.726239
H	2.767675	3.008788	1.726228
H	1.708773	2.959493	-1.161575
$end

$rem
JOBTYPE		SP
EXCHANGE	HF
CORRELATION	pRIMP2
BASIS		cc-pvtz
METHOD		rimp2
AUX_BASIS	rimp2-cc-pvtz
SOLVENT_METHOD	PCM
PURECART	11111
SYMMETRY	false
MEM_TOTAL	110000
SCF_CONVERGENCE = 6
THRESH=10
$end

$solvent
dielectric 4.90
$end
--------------------------------------------------------------

             Standard Nuclear Orientation (Angstroms)
    I     Atom           X                Y                Z
 ----------------------------------------------------------------
    1      C      -0.5933240000    -3.8667250000    -0.4987880000
    2      C       0.4694460000    -3.7039630000     0.3935170000
    3      C       0.8170500000    -2.3570560000     0.6856740000
    4      H       0.9983810000    -4.5610920000     0.8371280000
    5      C       0.0000000000    -1.4406640000     0.0000000000
    6      S      -1.1831490000    -2.2869570000    -0.9927680000
    7      C       1.9316760000    -1.9787430000     1.6212540000
    8      H       2.4258820000    -2.8786780000     2.0358450000
    9      H       1.5639800000    -1.3760150000     2.4778680000
   10      H       2.7114170000    -1.3757280000     1.1107190000
   11      H      -1.0528960000    -4.7834370000    -0.8847180000
   12      C       0.0000000000     0.0000000000     0.0000000000
   13      C       0.4318290000     0.7478840000     1.0994460000
   14      C       1.1237990000     1.9463730000     0.7767210000
   15      H       0.2474230000     0.4284970000     2.1360880000
   16      C       1.2341470000     2.1374570000    -0.6125460000
   17      S       0.4712210000     0.8161300000    -1.4868090000
   18      C       1.6676940000     2.8883800000     1.8146090000
   19      H       1.4548740000     2.5197680000     2.8366760000
   20      H       1.2220090000     3.9012100000     1.7262390000
   21      H       2.7676750000     3.0087880000     1.7262280000
   22      H       1.7087730000     2.9594930000    -1.1615750000
 ----------------------------------------------------------------

   10   -1179.6690587303      5.79e-07  Convergence criterion met
 Total energy in the final basis set =    -1179.6690587303
        RIMP2         total energy =     -1181.6529085990 a.u.

                    Orbital Energies (a.u.)
 --------------------------------------------------------------

 Alpha MOs
 -- Occupied --
-91.9845 -91.9809 -11.2747 -11.2729 -11.2707 -11.2700 -11.2522 -11.2513
-11.2463 -11.2415 -11.2300 -11.2284  -8.9843  -8.9809  -6.6652  -6.6646
 -6.6640  -6.6618  -6.6612  -6.6607  -1.1811  -1.1490  -1.0417  -1.0233
 -0.9964  -0.9546  -0.9130  -0.8926  -0.7994  -0.7533  -0.7320  -0.6981
 -0.6598  -0.6158  -0.5869  -0.5803  -0.5712  -0.5643  -0.5509  -0.5362
 -0.5278  -0.5228  -0.5085  -0.4908  -0.4798  -0.4673  -0.4573  -0.3480
 -0.3425  -0.3397  -0.2813

          Ground-State Mulliken Net Atomic Charges

     Atom                 Charge (a.u.)
  ----------------------------------------
      1 C                    -0.212339
      2 C                    -0.252240
      3 C                     0.058762
      4 H                     0.183915
      5 C                    -0.026273
      6 S                     0.012998
      7 C                    -0.289035
      8 H                     0.113514
      9 H                     0.106359
     10 H                     0.116202
     11 H                     0.204347
     12 C                    -0.031585
     13 C                    -0.273180
     14 C                     0.048786
     15 H                     0.193087
     16 C                    -0.234588
     17 S                     0.031605
     18 C                    -0.268992
     19 H                     0.102438
     20 H                     0.109102
     21 H                     0.107837
     22 H                     0.199280
  ----------------------------------------
  Sum of atomic charges =     0.000000

                    Cartesian Multipole Moments
 -----------------------------------------------------------------
    Charge (ESU x 10^10)
                -0.0000
    Dipole Moment (Debye)
         X       2.3173      Y       0.4664      Z       2.5243
       Tot       3.4583
    Quadrupole Moments (Debye-Ang)
        XX     -86.1306     XY       3.2675     YY     -71.9112
        XZ       3.5941     YZ      -0.5917     ZZ     -83.9810

 Total job time:  565.63s(wall), 562.29s(cpu)
        *  Thank you very much for using Q-Chem.  Have a nice day.  *
