 Q-Chem 5.4, Q-Chem, Inc., Pleasanton, CA (2021)
 Q-Chem 5.4.0 for Intel X86 EM64T Linux

User input:
--------------------------------------------------------------
$molecule
0 1
C	-0.133897	-3.866725	-0.763475
C	0.106669	-3.703963	0.603206
C	0.185154	-2.357056	1.050446
H	0.226709	-4.561092	1.283024
C	-0.000000	-1.440664	-0.000000
S	-0.268206	-2.286957	-1.521018
C	0.437628	-1.978743	2.483610
H	0.549717	-2.878678	3.118875
H	-0.394664	-1.376015	2.903464
H	1.363110	-1.375728	2.593726
H	-0.237880	-4.783437	-1.354522
C	0.000000	0.000000	0.000000
C	0.555137	0.661535	1.099446
C	1.444710	1.721658	0.776721
H	0.318072	0.379023	2.136088
C	1.586563	1.890676	-0.612546
S	0.605781	0.721904	-1.486809
C	2.143920	2.554907	1.814609
H	1.870325	2.228851	2.836676
H	1.880882	3.629742	1.726239
H	3.248098	2.482476	1.726228
H	2.196723	2.617806	-1.161575
$end

$rem
JOBTYPE		SP
EXCHANGE	HF
CORRELATION	pRIMP2
BASIS		cc-pvtz
METHOD		rimp2
AUX_BASIS	rimp2-cc-pvtz
SOLVENT_METHOD	PCM
PURECART	11111
SYMMETRY	false
MEM_TOTAL	110000
SCF_CONVERGENCE = 6
THRESH=10
$end

$solvent
dielectric 4.90
$end
--------------------------------------------------------------

             Standard Nuclear Orientation (Angstroms)
    I     Atom           X                Y                Z
 ----------------------------------------------------------------
    1      C      -0.1338970000    -3.8667250000    -0.7634750000
    2      C       0.1066690000    -3.7039630000     0.6032060000
    3      C       0.1851540000    -2.3570560000     1.0504460000
    4      H       0.2267090000    -4.5610920000     1.2830240000
    5      C       0.0000000000    -1.4406640000     0.0000000000
    6      S      -0.2682060000    -2.2869570000    -1.5210180000
    7      C       0.4376280000    -1.9787430000     2.4836100000
    8      H       0.5497170000    -2.8786780000     3.1188750000
    9      H      -0.3946640000    -1.3760150000     2.9034640000
   10      H       1.3631100000    -1.3757280000     2.5937260000
   11      H      -0.2378800000    -4.7834370000    -1.3545220000
   12      C       0.0000000000     0.0000000000     0.0000000000
   13      C       0.5551370000     0.6615350000     1.0994460000
   14      C       1.4447100000     1.7216580000     0.7767210000
   15      H       0.3180720000     0.3790230000     2.1360880000
   16      C       1.5865630000     1.8906760000    -0.6125460000
   17      S       0.6057810000     0.7219040000    -1.4868090000
   18      C       2.1439200000     2.5549070000     1.8146090000
   19      H       1.8703250000     2.2288510000     2.8366760000
   20      H       1.8808820000     3.6297420000     1.7262390000
   21      H       3.2480980000     2.4824760000     1.7262280000
   22      H       2.1967230000     2.6178060000    -1.1615750000
 ----------------------------------------------------------------

   10   -1179.6504130050      7.76e-07  Convergence criterion met
 Total energy in the final basis set =    -1179.6504130050
        RIMP2         total energy =     -1181.6393458747 a.u.

                    Orbital Energies (a.u.)
 --------------------------------------------------------------

 Alpha MOs
 -- Occupied --
-91.9843 -91.9786 -11.2785 -11.2765 -11.2722 -11.2651 -11.2537 -11.2501
-11.2451 -11.2406 -11.2308 -11.2297  -8.9847  -8.9790  -6.6656  -6.6649
 -6.6643  -6.6600  -6.6594  -6.6587  -1.1855  -1.1484  -1.0444  -1.0260
 -0.9959  -0.9552  -0.9133  -0.8945  -0.8004  -0.7563  -0.7289  -0.7020
 -0.6576  -0.6147  -0.5942  -0.5827  -0.5707  -0.5618  -0.5510  -0.5414
 -0.5298  -0.5230  -0.5046  -0.4896  -0.4807  -0.4722  -0.4478  -0.3690
 -0.3488  -0.3338  -0.2651

          Ground-State Mulliken Net Atomic Charges

     Atom                 Charge (a.u.)
  ----------------------------------------
      1 C                    -0.228645
      2 C                    -0.248200
      3 C                     0.050998
      4 H                     0.183316
      5 C                    -0.028191
      6 S                     0.000370
      7 C                    -0.309440
      8 H                     0.115763
      9 H                     0.105367
     10 H                     0.109595
     11 H                     0.204354
     12 C                    -0.012906
     13 C                    -0.232682
     14 C                     0.028904
     15 H                     0.201840
     16 C                    -0.220323
     17 S                     0.027415
     18 C                    -0.269418
     19 H                     0.102057
     20 H                     0.109944
     21 H                     0.108357
     22 H                     0.201526
  ----------------------------------------
  Sum of atomic charges =     0.000000

                    Cartesian Multipole Moments
 -----------------------------------------------------------------
    Charge (ESU x 10^10)
                -0.0000
    Dipole Moment (Debye)
         X       1.9299      Y       0.8323      Z       3.0256
       Tot       3.6840
    Quadrupole Moments (Debye-Ang)
        XX     -87.4906     XY       5.4707     YY     -74.8747
        XZ       1.6024     YZ      -1.6038     ZZ     -80.3262

 Total job time:  596.64s(wall), 592.33s(cpu)
        *  Thank you very much for using Q-Chem.  Have a nice day.  *
