 Q-Chem 5.4, Q-Chem, Inc., Pleasanton, CA (2021)
 Q-Chem 5.4.0 for Intel X86 EM64T Linux

User input:
--------------------------------------------------------------
$molecule
0 1
C	-0.775127	-3.866725	-0.000713
C	0.612565	-3.703963	-0.000302
C	1.066639	-2.357056	0.000067
H	1.302900	-4.561092	-0.000470
C	0.000000	-1.440664	0.000000
S	-1.544483	-2.286957	0.000009
C	2.521872	-1.978743	0.000295
H	3.166949	-2.878678	0.000221
H	2.790821	-1.376015	0.892850
H	2.791023	-1.375728	-0.892005
H	-1.375251	-4.783437	-0.000945
C	0.000000	0.000000	0.000000
C	0.661577	0.555087	1.099446
C	1.721724	1.444630	0.776721
H	0.379056	0.318032	2.136088
C	1.890772	1.586449	-0.612546
S	0.721935	0.605744	-1.486809
C	2.555004	2.143805	1.814609
H	2.228946	1.870211	2.836676
H	2.482605	3.247987	1.726239
H	3.629830	1.880735	1.726228
H	2.617927	2.196579	-1.161575
$end

$rem
JOBTYPE		SP
EXCHANGE	HF
CORRELATION	pRIMP2
BASIS		cc-pvtz
METHOD		rimp2
AUX_BASIS	rimp2-cc-pvtz
SOLVENT_METHOD	PCM
PURECART	11111
SYMMETRY	false
MEM_TOTAL	110000
SCF_CONVERGENCE = 6
THRESH=10
$end

$solvent
dielectric 4.90
$end
--------------------------------------------------------------

             Standard Nuclear Orientation (Angstroms)
    I     Atom           X                Y                Z
 ----------------------------------------------------------------
    1      C      -0.7751270000    -3.8667250000    -0.0007130000
    2      C       0.6125650000    -3.7039630000    -0.0003020000
    3      C       1.0666390000    -2.3570560000     0.0000670000
    4      H       1.3029000000    -4.5610920000    -0.0004700000
    5      C       0.0000000000    -1.4406640000     0.0000000000
    6      S      -1.5444830000    -2.2869570000     0.0000090000
    7      C       2.5218720000    -1.9787430000     0.0002950000
    8      H       3.1669490000    -2.8786780000     0.0002210000
    9      H       2.7908210000    -1.3760150000     0.8928500000
   10      H       2.7910230000    -1.3757280000    -0.8920050000
   11      H      -1.3752510000    -4.7834370000    -0.0009450000
   12      C       0.0000000000     0.0000000000     0.0000000000
   13      C       0.6615770000     0.5550870000     1.0994460000
   14      C       1.7217240000     1.4446300000     0.7767210000
   15      H       0.3790560000     0.3180320000     2.1360880000
   16      C       1.8907720000     1.5864490000    -0.6125460000
   17      S       0.7219350000     0.6057440000    -1.4868090000
   18      C       2.5550040000     2.1438050000     1.8146090000
   19      H       2.2289460000     1.8702110000     2.8366760000
   20      H       2.4826050000     3.2479870000     1.7262390000
   21      H       3.6298300000     1.8807350000     1.7262280000
   22      H       2.6179270000     2.1965790000    -1.1615750000
 ----------------------------------------------------------------

   10   -1179.6370746842      9.54e-07  Convergence criterion met
 Total energy in the final basis set =    -1179.6370746842
        RIMP2         total energy =     -1181.6298620093 a.u.

                    Orbital Energies (a.u.)
 --------------------------------------------------------------

 Alpha MOs
 -- Occupied --
-91.9838 -91.9757 -11.2822 -11.2727 -11.2638 -11.2594 -11.2581 -11.2526
-11.2445 -11.2380 -11.2311 -11.2251  -8.9839  -8.9758  -6.6647  -6.6640
 -6.6636  -6.6567  -6.6560  -6.6555  -1.1856  -1.1464  -1.0438  -1.0175
 -0.9996  -0.9528  -0.9126  -0.8898  -0.7956  -0.7512  -0.7376  -0.6947
 -0.6565  -0.6190  -0.5840  -0.5814  -0.5726  -0.5681  -0.5492  -0.5337
 -0.5255  -0.5229  -0.5124  -0.4881  -0.4693  -0.4651  -0.4493  -0.3503
 -0.3373  -0.3156  -0.2983

          Ground-State Mulliken Net Atomic Charges

     Atom                 Charge (a.u.)
  ----------------------------------------
      1 C                    -0.221164
      2 C                    -0.255678
      3 C                     0.054092
      4 H                     0.182664
      5 C                    -0.011153
      6 S                     0.004409
      7 C                    -0.313177
      8 H                     0.117807
      9 H                     0.112564
     10 H                     0.114788
     11 H                     0.200230
     12 C                    -0.105407
     13 C                    -0.184445
     14 C                     0.021937
     15 H                     0.189700
     16 C                    -0.198082
     17 S                     0.036787
     18 C                    -0.268591
     19 H                     0.103999
     20 H                     0.111702
     21 H                     0.105936
     22 H                     0.201080
  ----------------------------------------
  Sum of atomic charges =     0.000000

                    Cartesian Multipole Moments
 -----------------------------------------------------------------
    Charge (ESU x 10^10)
                -0.0000
    Dipole Moment (Debye)
         X       3.7937      Y       0.8466      Z       1.5785
       Tot       4.1953
    Quadrupole Moments (Debye-Ang)
        XX     -79.6547     XY       3.6625     YY     -77.5896
        XZ       0.5024     YZ       0.6650     ZZ     -86.0715

 Total job time:  605.75s(wall), 601.90s(cpu)
        *  Thank you very much for using Q-Chem.  Have a nice day.  *
