 Q-Chem 5.4, Q-Chem, Inc., Pleasanton, CA (2021)
 Q-Chem 5.4.0 for Intel X86 EM64T Linux

User input:
--------------------------------------------------------------
$molecule
0 1
C	-0.135301	-3.866725	0.763228
C	0.106073	-3.703963	-0.603311
C	0.185286	-2.357056	-1.050423
H	0.225783	-4.561092	-1.283188
C	-0.000000	-1.440664	-0.000000
S	-0.268187	-2.286957	1.521021
C	0.438209	-1.978743	-2.483507
H	0.550153	-2.878678	-3.118798
H	1.363906	-1.376015	-2.593381
H	-0.393798	-1.375728	-2.903516
H	-0.239740	-4.783437	1.354194
C	0.000000	0.000000	0.000000
C	0.295399	0.811508	1.099446
C	0.768742	2.111949	0.776721
H	0.169256	0.464952	2.136088
C	0.844232	2.319291	-0.612546
S	0.322342	0.885558	-1.486809
C	1.140796	3.134091	1.814609
H	0.995218	2.734123	2.836676
H	0.526006	4.054142	1.726239
H	2.203157	3.443680	1.726228
H	1.168902	3.211257	-1.161575
$end

$rem
JOBTYPE		SP
EXCHANGE	HF
CORRELATION	pRIMP2
BASIS		cc-pvtz
METHOD		rimp2
AUX_BASIS	rimp2-cc-pvtz
SOLVENT_METHOD	PCM
PURECART	11111
SYMMETRY	false
MEM_TOTAL	110000
SCF_CONVERGENCE = 6
THRESH=10
$end

$solvent
dielectric 4.90
$end
--------------------------------------------------------------

             Standard Nuclear Orientation (Angstroms)
    I     Atom           X                Y                Z
 ----------------------------------------------------------------
    1      C      -0.1353010000    -3.8667250000     0.7632280000
    2      C       0.1060730000    -3.7039630000    -0.6033110000
    3      C       0.1852860000    -2.3570560000    -1.0504230000
    4      H       0.2257830000    -4.5610920000    -1.2831880000
    5      C       0.0000000000    -1.4406640000     0.0000000000
    6      S      -0.2681870000    -2.2869570000     1.5210210000
    7      C       0.4382090000    -1.9787430000    -2.4835070000
    8      H       0.5501530000    -2.8786780000    -3.1187980000
    9      H       1.3639060000    -1.3760150000    -2.5933810000
   10      H      -0.3937980000    -1.3757280000    -2.9035160000
   11      H      -0.2397400000    -4.7834370000     1.3541940000
   12      C       0.0000000000     0.0000000000     0.0000000000
   13      C       0.2953990000     0.8115080000     1.0994460000
   14      C       0.7687420000     2.1119490000     0.7767210000
   15      H       0.1692560000     0.4649520000     2.1360880000
   16      C       0.8442320000     2.3192910000    -0.6125460000
   17      S       0.3223420000     0.8855580000    -1.4868090000
   18      C       1.1407960000     3.1340910000     1.8146090000
   19      H       0.9952180000     2.7341230000     2.8366760000
   20      H       0.5260060000     4.0541420000     1.7262390000
   21      H       2.2031570000     3.4436800000     1.7262280000
   22      H       1.1689020000     3.2112570000    -1.1615750000
 ----------------------------------------------------------------

   10   -1179.6767134868      5.09e-07  Convergence criterion met
 Total energy in the final basis set =    -1179.6767134868
        RIMP2         total energy =     -1181.6598762142 a.u.

                    Orbital Energies (a.u.)
 --------------------------------------------------------------

 Alpha MOs
 -- Occupied --
-91.9846 -91.9833 -11.2819 -11.2787 -11.2711 -11.2642 -11.2523 -11.2519
-11.2429 -11.2419 -11.2290 -11.2290  -8.9845  -8.9833  -6.6653  -6.6648
 -6.6643  -6.6641  -6.6637  -6.6631  -1.1821  -1.1496  -1.0427  -1.0251
 -0.9988  -0.9523  -0.9143  -0.8953  -0.7994  -0.7653  -0.7201  -0.6959
 -0.6623  -0.6158  -0.5845  -0.5821  -0.5776  -0.5696  -0.5527  -0.5339
 -0.5236  -0.5210  -0.5121  -0.4961  -0.4869  -0.4665  -0.4496  -0.3711
 -0.3427  -0.3396  -0.2674

          Ground-State Mulliken Net Atomic Charges

     Atom                 Charge (a.u.)
  ----------------------------------------
      1 C                    -0.214290
      2 C                    -0.251065
      3 C                     0.048710
      4 H                     0.184856
      5 C                    -0.030614
      6 S                     0.004148
      7 C                    -0.317280
      8 H                     0.115600
      9 H                     0.118845
     10 H                     0.112242
     11 H                     0.206487
     12 C                     0.046716
     13 C                    -0.256005
     14 C                     0.032646
     15 H                     0.177511
     16 C                    -0.250710
     17 S                     0.022780
     18 C                    -0.269466
     19 H                     0.102854
     20 H                     0.108546
     21 H                     0.108294
     22 H                     0.199196
  ----------------------------------------
  Sum of atomic charges =     0.000000

                    Cartesian Multipole Moments
 -----------------------------------------------------------------
    Charge (ESU x 10^10)
                -0.0000
    Dipole Moment (Debye)
         X       0.9730      Y       0.2194      Z      -0.1722
       Tot       1.0122
    Quadrupole Moments (Debye-Ang)
        XX     -91.2203     XY       3.0862     YY     -70.4123
        XZ      -0.8766     YZ       3.2174     ZZ     -80.0379

 Total job time:  561.48s(wall), 558.34s(cpu)
        *  Thank you very much for using Q-Chem.  Have a nice day.  *
