 Q-Chem 5.4, Q-Chem, Inc., Pleasanton, CA (2021)
 Q-Chem 5.4.0 for Intel X86 EM64T Linux

User input:
--------------------------------------------------------------
$molecule
0 1
C	-0.386946	-3.866725	-0.671636
C	0.306544	-3.703963	0.530345
C	0.533261	-2.357056	0.923770
H	0.651857	-4.561092	1.128109
C	0.000000	-1.440664	0.000000
S	-0.772250	-2.286957	-1.337557
C	1.260680	-1.978743	2.184153
H	1.583283	-2.878678	2.742769
H	0.622180	-1.376015	2.863347
H	2.168011	-1.375728	1.971094
H	-0.686807	-4.783437	-1.191474
C	0.000000	0.000000	0.000000
C	0.747916	0.431772	1.099446
C	1.946425	1.123709	0.776721
H	0.428523	0.247378	2.136088
C	2.137531	1.234018	-0.612546
S	0.816154	0.471179	-1.486809
C	2.888455	1.667564	1.814609
H	2.519842	1.454746	2.836676
H	3.008896	2.767543	1.726239
H	3.901271	1.221850	1.726228
H	2.959587	1.708609	-1.161575
$end

$rem
JOBTYPE		SP
EXCHANGE	HF
CORRELATION	pRIMP2
BASIS		cc-pvtz
METHOD		rimp2
AUX_BASIS	rimp2-cc-pvtz
SOLVENT_METHOD	PCM
PURECART	11111
SYMMETRY	false
MEM_TOTAL	110000
SCF_CONVERGENCE = 6
THRESH=10
$end

$solvent
dielectric 4.90
$end
--------------------------------------------------------------

             Standard Nuclear Orientation (Angstroms)
    I     Atom           X                Y                Z
 ----------------------------------------------------------------
    1      C      -0.3869460000    -3.8667250000    -0.6716360000
    2      C       0.3065440000    -3.7039630000     0.5303450000
    3      C       0.5332610000    -2.3570560000     0.9237700000
    4      H       0.6518570000    -4.5610920000     1.1281090000
    5      C       0.0000000000    -1.4406640000     0.0000000000
    6      S      -0.7722500000    -2.2869570000    -1.3375570000
    7      C       1.2606800000    -1.9787430000     2.1841530000
    8      H       1.5832830000    -2.8786780000     2.7427690000
    9      H       0.6221800000    -1.3760150000     2.8633470000
   10      H       2.1680110000    -1.3757280000     1.9710940000
   11      H      -0.6868070000    -4.7834370000    -1.1914740000
   12      C       0.0000000000     0.0000000000     0.0000000000
   13      C       0.7479160000     0.4317720000     1.0994460000
   14      C       1.9464250000     1.1237090000     0.7767210000
   15      H       0.4285230000     0.2473780000     2.1360880000
   16      C       2.1375310000     1.2340180000    -0.6125460000
   17      S       0.8161540000     0.4711790000    -1.4868090000
   18      C       2.8884550000     1.6675640000     1.8146090000
   19      H       2.5198420000     1.4547460000     2.8366760000
   20      H       3.0088960000     2.7675430000     1.7262390000
   21      H       3.9012710000     1.2218500000     1.7262280000
   22      H       2.9595870000     1.7086090000    -1.1615750000
 ----------------------------------------------------------------

   11   -1179.6054845018      5.57e-07  Convergence criterion met
 Total energy in the final basis set =    -1179.6054845018
        RIMP2         total energy =     -1181.6033192347 a.u.

                    Orbital Energies (a.u.)
 --------------------------------------------------------------

 Alpha MOs
 -- Occupied --
-91.9827 -91.9716 -11.2917 -11.2782 -11.2644 -11.2600 -11.2548 -11.2540
-11.2388 -11.2374 -11.2327 -11.2276  -8.9835  -8.9724  -6.6643  -6.6634
 -6.6631  -6.6534  -6.6528  -6.6522  -1.1936  -1.1455  -1.0479  -1.0267
 -0.9967  -0.9524  -0.9141  -0.8939  -0.7967  -0.7573  -0.7339  -0.7031
 -0.6529  -0.6192  -0.6000  -0.5863  -0.5684  -0.5592  -0.5495  -0.5422
 -0.5305  -0.5228  -0.5069  -0.4865  -0.4765  -0.4586  -0.4485  -0.3606
 -0.3458  -0.3330  -0.2666

          Ground-State Mulliken Net Atomic Charges

     Atom                 Charge (a.u.)
  ----------------------------------------
      1 C                    -0.227609
      2 C                    -0.260641
      3 C                     0.028120
      4 H                     0.181325
      5 C                     0.010641
      6 S                    -0.013722
      7 C                    -0.294973
      8 H                     0.114400
      9 H                     0.097186
     10 H                     0.113202
     11 H                     0.201242
     12 C                    -0.148234
     13 C                    -0.115273
     14 C                    -0.023560
     15 H                     0.201132
     16 C                    -0.169521
     17 S                     0.045993
     18 C                    -0.280935
     19 H                     0.106394
     20 H                     0.121206
     21 H                     0.109276
     22 H                     0.204349
  ----------------------------------------
  Sum of atomic charges =     0.000000

                    Cartesian Multipole Moments
 -----------------------------------------------------------------
    Charge (ESU x 10^10)
                -0.0000
    Dipole Moment (Debye)
         X       3.7415      Y       1.0585      Z       3.0470
       Tot       4.9400
    Quadrupole Moments (Debye-Ang)
        XX     -81.2276     XY       4.5163     YY     -80.5626
        XZ       3.0167     YZ      -1.5969     ZZ     -81.5234

 Total job time:  664.02s(wall), 661.32s(cpu)
        *  Thank you very much for using Q-Chem.  Have a nice day.  *
