                         Program Version 4.2.0 -  RELEASE  -
|  1> ! RI BP86 def2-SVP def2/J D3BJ TIGHTSCF  Opt Grid3 FinalGrid5
|  2> %maxcore 3000
|  3> %geom
|  4> optimizehydrogens true
|  5> end
|  6>
|  7>
|  8> *xyz 0 1
|  9> C	-3.566724	0.006178	-0.030134
| 10> C	-2.677602	-1.083421	0.013667
| 11> N	-2.805951	1.170083	-0.056306
| 12> C	-1.340961	-0.574755	0.013897
| 13> C	-1.381430	0.881374	-0.031222
| 14> C	-3.268860	2.537620	-0.103362
| 15> H	-3.856085	2.741490	-1.022877
| 16> H	-2.357926	3.167437	-0.109963
| 17> H	-3.880418	2.795359	0.786292
| 18> C	-2.634505	-2.544132	0.057843
| 19> N	-1.204807	-2.831237	0.082741
| 20> C	-0.450902	-1.668393	0.057516
| 21> O	-0.538262	1.778219	-0.048031
| 22> O	-3.477538	-3.432407	0.074354
| 23> C	-0.728246	-4.193122	0.131095
| 24> H	-1.631584	-4.834214	0.137730
| 25> H	-0.138027	-4.389402	1.050802
| 26> H	-0.112443	-4.444491	-0.757913
| 27> H	-4.646517	-0.011555	-0.041723
| 28> H	0.628165	-1.625207	0.069727
| 29> **                         ****END OF INPUT****
 Total Charge           Charge          ....    0
 Multiplicity           Mult            ....    1
 Number of Electrons    NEL             ....   86
Dispersion correction           -0.033551066
FINAL SINGLE POINT ENERGY      -569.257194386718
Dispersion correction            ... done
Dispersion correction           -0.033531869
FINAL SINGLE POINT ENERGY      -569.257888815073
Dispersion correction            ... done
Dispersion correction           -0.033527459
FINAL SINGLE POINT ENERGY      -569.258085782887
Dispersion correction            ... done
Dispersion correction           -0.033527442
FINAL SINGLE POINT ENERGY      -569.258186769322
Dispersion correction            ... done
Dispersion correction           -0.033529085
FINAL SINGLE POINT ENERGY      -569.258192992214
Dispersion correction            ... done
                    ***********************HURRAY********************

CARTESIAN COORDINATES (ANGSTROEM)
---------------------------------
  C     -3.567458    0.005791   -0.030230
  C     -2.677253   -1.082922    0.013613
  N     -2.807844    1.170456   -0.056269
  C     -1.341120   -0.572922    0.014006
  C     -1.383038    0.883168   -0.031049
  C     -3.272113    2.537533   -0.103309
  H     -3.864329    2.737484   -1.020433
  H     -2.366264    3.174180   -0.110956
  H     -3.887417    2.791628    0.784748
  C     -2.632703   -2.543591    0.057725
  N     -1.202722   -2.829270    0.082759
  C     -0.449975   -1.665673    0.057667
  O     -0.540764    1.780855   -0.047728
  O     -3.474850   -3.432708    0.074106
  C     -0.724807   -4.190681    0.131099
  H     -1.622759   -4.838669    0.138620
  H     -0.131503   -4.384028    1.048925
  H     -0.106524   -4.439200   -0.756447
  H     -4.664221    0.034387   -0.044225
  H      0.647041   -1.690393    0.071512

 Multiplicity           Mult            ....    1
 Number of Electrons    NEL             ....   86
 Basis Dimension        Dim             ....  208

ORBITAL ENERGIES
----------------

  NO   OCC          E(Eh)            E(eV)
   0   2.0000     -18.762193      -510.5452
   1   2.0000     -18.760106      -510.4884
   2   2.0000     -14.073166      -382.9503
   3   2.0000     -14.072259      -382.9256
   4   2.0000     -10.016206      -272.5548
   5   2.0000     -10.014619      -272.5116
   6   2.0000      -9.985554      -271.7207
   7   2.0000      -9.985086      -271.7080
   8   2.0000      -9.961395      -271.0633
   9   2.0000      -9.959969      -271.0245
  10   2.0000      -9.921778      -269.9853
  11   2.0000      -9.921619      -269.9810
  12   2.0000      -0.950621       -25.8677
  13   2.0000      -0.944784       -25.7089
  14   2.0000      -0.886253       -24.1162
  15   2.0000      -0.876994       -23.8642
  16   2.0000      -0.757902       -20.6236
  17   2.0000      -0.693804       -18.8794
  18   2.0000      -0.656037       -17.8517
  19   2.0000      -0.627172       -17.0662
  20   2.0000      -0.611743       -16.6464
  21   2.0000      -0.534842       -14.5538
  22   2.0000      -0.533292       -14.5116
  23   2.0000      -0.479570       -13.0498
  24   2.0000      -0.454455       -12.3664
  25   2.0000      -0.449482       -12.2310
  26   2.0000      -0.442753       -12.0479
  27   2.0000      -0.436050       -11.8655
  28   2.0000      -0.423427       -11.5220
  29   2.0000      -0.393991       -10.7210
  30   2.0000      -0.381889       -10.3917
  31   2.0000      -0.376509       -10.2453
  32   2.0000      -0.374114       -10.1802
  33   2.0000      -0.356711        -9.7066
  34   2.0000      -0.355568        -9.6755
  35   2.0000      -0.352230        -9.5847
  36   2.0000      -0.343648        -9.3511
  37   2.0000      -0.300109        -8.1664
  38   2.0000      -0.298348        -8.1185
  39   2.0000      -0.233031        -6.3411
  40   2.0000      -0.224656        -6.1132
  41   2.0000      -0.222001        -6.0410
  42   2.0000      -0.184306        -5.0152
  43   0.0000      -0.116524        -3.1708
  44   0.0000      -0.043913        -1.1949
  45   0.0000       0.036463         0.9922
  46   0.0000       0.044098         1.2000
  47   0.0000       0.047229         1.2852

MULLIKEN ATOMIC CHARGES
-----------------------
   0 C :    0.070308
   1 C :   -0.048244
   2 N :   -0.273673
   3 C :   -0.048665
   4 C :    0.155782
   5 C :    0.051906
   6 H :    0.051877
   7 H :    0.071984
   8 H :    0.051878
   9 C :    0.156243
  10 N :   -0.273148
  11 C :    0.072329
  12 O :   -0.177091
  13 O :   -0.168310
  14 C :    0.052223
  15 H :    0.071342
  16 H :    0.052537
  17 H :    0.052525
  18 H :    0.038985
  19 H :    0.039211
Sum of atomic charges:   -0.0000000

LOEWDIN ATOMIC CHARGES
----------------------
   0 C :    0.078043
   1 C :   -0.125290
   2 N :   -0.001250
   3 C :   -0.125533
   4 C :    0.061251
   5 C :    0.008267
   6 H :    0.032842
   7 H :    0.043521
   8 H :    0.032840
   9 C :    0.061312
  10 N :   -0.001700
  11 C :    0.078483
  12 O :   -0.173706
  13 O :   -0.166213
  14 C :    0.008594
  15 H :    0.043620
  16 H :    0.033218
  17 H :    0.033221
  18 H :    0.039210
  19 H :    0.039268

  Mayer bond orders larger than 0.100000
B(  0-C ,  1-C ) :   1.3942 B(  0-C ,  2-N ) :   1.2045 B(  0-C , 11-C ) :   0.1048
B(  0-C , 18-H ) :   0.9766 B(  1-C ,  3-C ) :   1.2556 B(  1-C ,  9-C ) :   1.0043
B(  2-N ,  4-C ) :   0.9650 B(  2-N ,  5-C ) :   0.9798 B(  3-C ,  4-C ) :   1.0094
B(  3-C , 11-C ) :   1.3891 B(  4-C , 12-O ) :   2.0877 B(  5-C ,  6-H ) :   0.9667
B(  5-C ,  7-H ) :   0.9435 B(  5-C ,  8-H ) :   0.9667 B(  9-C , 10-N ) :   0.9579
B(  9-C , 13-O ) :   2.1002 B( 10-N , 11-C ) :   1.2106 B( 10-N , 14-C ) :   0.9799
B( 11-C , 19-H ) :   0.9760 B( 14-C , 15-H ) :   0.9449 B( 14-C , 16-H ) :   0.9666
B( 14-C , 17-H ) :   0.9666

Dispersion correction           -0.033529746
FINAL SINGLE POINT ENERGY      -569.258193391094

DIPOLE MOMENT
-------------
                                X             Y             Z
Electronic contribution:     -0.05051      -0.05059      -0.00159
Nuclear contribution   :      0.04834       0.01011       0.00327
                        -----------------------------------------
Total Dipole Moment    :     -0.00216      -0.04049       0.00169
                        -----------------------------------------
Magnitude (a.u.)       :      0.04058
Magnitude (Debye)      :      0.10315

Rotational constants in cm-1:     0.073476     0.021421     0.016694
Rotational constants in MHz :  2202.765597   642.181374   500.462327

                             ****ORCA TERMINATED NORMALLY****
TOTAL RUN TIME: 0 days 0 hours 2 minutes 12 seconds 978 msec
