                         Program Version 4.2.0 -  RELEASE  -
|  1> ! RI BP86 def2-SVP def2/J D3BJ TIGHTSCF  Opt Grid3 FinalGrid5
|  2> %maxcore 3000
|  3> %geom
|  4> optimizehydrogens true
|  5> end
|  6>
|  7>
|  8> *xyz 0 1
|  9> C	-4.181513	-0.281585	-0.123829
| 10> C	-3.712870	1.045457	-0.148502
| 11> C	-2.307455	1.156930	-0.123859
| 12> H	-4.404842	1.900307	-0.184564
| 13> C	-1.694950	-0.118721	-0.079050
| 14> S	-2.835196	-1.429261	-0.067443
| 15> Si	-0.932238	2.463817	-0.128105
| 16> C	0.400521	1.115055	-0.069144
| 17> C	-0.251348	-0.141461	-0.049790
| 18> S	0.846679	-1.487063	0.008286
| 19> C	2.229131	-0.380128	0.007517
| 20> C	1.801341	0.961656	-0.036016
| 21> H	2.520244	1.794622	-0.043213
| 22> C	-0.946560	3.553842	1.410661
| 23> H	-0.974276	2.929633	2.325814
| 24> H	-1.834428	4.219315	1.415734
| 25> H	-0.039700	4.191886	1.451516
| 26> C	-0.884162	3.481859	-1.714652
| 27> H	-0.878851	2.818010	-2.601823
| 28> H	0.025777	4.115964	-1.748716
| 29> H	-1.768627	4.148359	-1.783181
| 30> H	-5.210314	-0.609944	-0.136100
| 31> H	3.248916	-0.734429	0.037668
| 32> **                         ****END OF INPUT****
 Total Charge           Charge          ....    0
 Multiplicity           Mult            ....    1
 Number of Electrons    NEL             ....  116
Dispersion correction           -0.057086356
FINAL SINGLE POINT ENERGY     -1472.530202331485
Dispersion correction            ... done
Dispersion correction           -0.057071222
FINAL SINGLE POINT ENERGY     -1472.530687563141
Dispersion correction            ... done
Dispersion correction           -0.057069100
FINAL SINGLE POINT ENERGY     -1472.530768618131
Dispersion correction            ... done
Dispersion correction           -0.057068467
FINAL SINGLE POINT ENERGY     -1472.530836778202
Dispersion correction            ... done
Dispersion correction           -0.057069373
FINAL SINGLE POINT ENERGY     -1472.530838989197
Dispersion correction            ... done
                    ***********************HURRAY********************

CARTESIAN COORDINATES (ANGSTROEM)
---------------------------------
  C     -4.181154   -0.277348   -0.124011
  C     -3.712622    1.049735   -0.148588
  C     -2.307216    1.161322   -0.123961
  H     -4.408455    1.901306   -0.184194
  C     -1.694604   -0.114282   -0.079264
  S     -2.834741   -1.424917   -0.067740
  Si    -0.932107    2.468323   -0.128129
  C      0.400765    1.119667   -0.069299
  C     -0.251000   -0.136904   -0.050033
  S      0.847140   -1.482420    0.007917
  C      2.229500   -0.375370    0.007210
  C      1.801598    0.966382   -0.036209
  H      2.523736    1.796499   -0.042884
  C     -0.946491    3.558225    1.410724
  H     -0.975516    2.931264    2.323953
  H     -1.833997    4.224325    1.417141
  H     -0.039166    4.195576    1.454385
  C     -0.884144    3.486495   -1.714596
  H     -0.876656    2.818672   -2.598825
  H      0.024394    4.122581   -1.750844
  H     -1.770338    4.150400   -1.787019
  H     -5.212878   -0.648342   -0.134834
  H      3.249231   -0.777070    0.038308

 Multiplicity           Mult            ....    1
 Number of Electrons    NEL             ....  116
 Basis Dimension        Dim             ....  244

ORBITAL ENERGIES
----------------

  NO   OCC          E(Eh)            E(eV)
   0   2.0000     -88.121037     -2397.8953
   1   2.0000     -88.120895     -2397.8915
   2   2.0000     -65.452149     -1781.0435
   3   2.0000      -9.949189      -270.7312
   4   2.0000      -9.949137      -270.7298
   5   2.0000      -9.940835      -270.5039
   6   2.0000      -9.940664      -270.4992
   7   2.0000      -9.924368      -270.0558
   8   2.0000      -9.924253      -270.0526
   9   2.0000      -9.904272      -269.5090
  10   2.0000      -9.904234      -269.5079
  11   2.0000      -9.903215      -269.4802
  12   2.0000      -9.903111      -269.4773
  13   2.0000      -7.716714      -209.9825
  14   2.0000      -7.716602      -209.9794
  15   2.0000      -5.743585      -156.2909
  16   2.0000      -5.743482      -156.2881
  17   2.0000      -5.739388      -156.1767
  18   2.0000      -5.739289      -156.1740
  19   2.0000      -5.736273      -156.0919
  20   2.0000      -5.736176      -156.0893
  21   2.0000      -5.060572      -137.7052
  22   2.0000      -3.476192       -94.5920
  23   2.0000      -3.474995       -94.5594
  24   2.0000      -3.473971       -94.5316
  25   2.0000      -0.809764       -22.0348
  26   2.0000      -0.784273       -21.3412
  27   2.0000      -0.692187       -18.8354
  28   2.0000      -0.672374       -18.2962
  29   2.0000      -0.657112       -17.8809
  30   2.0000      -0.633186       -17.2299
  31   2.0000      -0.611529       -16.6406
  32   2.0000      -0.608849       -16.5676
  33   2.0000      -0.532418       -14.4878
  34   2.0000      -0.518117       -14.0987
  35   2.0000      -0.482453       -13.1282
  36   2.0000      -0.463991       -12.6258
  37   2.0000      -0.445655       -12.1269
  38   2.0000      -0.413771       -11.2593
  39   2.0000      -0.394961       -10.7474
  40   2.0000      -0.375805       -10.2262
  41   2.0000      -0.368315       -10.0224
  42   2.0000      -0.367974       -10.0131
  43   2.0000      -0.367410        -9.9977
  44   2.0000      -0.353972        -9.6321
  45   2.0000      -0.349292        -9.5047
  46   2.0000      -0.347686        -9.4610
  47   2.0000      -0.329478        -8.9656
  48   2.0000      -0.325320        -8.8524
  49   2.0000      -0.322710        -8.7814
  50   2.0000      -0.315906        -8.5962
  51   2.0000      -0.283448        -7.7130
  52   2.0000      -0.274768        -7.4768
  53   2.0000      -0.270623        -7.3640
  54   2.0000      -0.244674        -6.6579
  55   2.0000      -0.230759        -6.2793
  56   2.0000      -0.227660        -6.1949
  57   2.0000      -0.175101        -4.7647
  58   0.0000      -0.082931        -2.2567
  59   0.0000      -0.019135        -0.5207
  60   0.0000      -0.015017        -0.4086
  61   0.0000      -0.012638        -0.3439
  62   0.0000       0.017671         0.4809

MULLIKEN ATOMIC CHARGES
-----------------------
   0 C :   -0.121492
   1 C :   -0.009196
   2 C :   -0.121437
   3 H :    0.006607
   4 C :   -0.115459
   5 S :    0.124756
   6 Si:    0.472797
   7 C :   -0.121350
   8 C :   -0.114744
   9 S :    0.124949
  10 C :   -0.121775
  11 C :   -0.009463
  12 H :    0.006773
  13 C :   -0.247023
  14 H :    0.076125
  15 H :    0.062003
  16 H :    0.061882
  17 C :   -0.246961
  18 H :    0.076082
  19 H :    0.061825
  20 H :    0.061789
  21 H :    0.046638
  22 H :    0.046673
Sum of atomic charges:   -0.0000000

LOEWDIN ATOMIC CHARGES
----------------------
   0 C :   -0.198598
   1 C :   -0.068044
   2 C :   -0.212412
   3 H :    0.034375
   4 C :   -0.198112
   5 S :    0.416443
   6 Si:    0.639799
   7 C :   -0.212341
   8 C :   -0.197982
   9 S :    0.416069
  10 C :   -0.198430
  11 C :   -0.067938
  12 H :    0.034371
  13 C :   -0.254213
  14 H :    0.047858
  15 H :    0.041903
  16 H :    0.041875
  17 C :   -0.254227
  18 H :    0.047835
  19 H :    0.041896
  20 H :    0.041891
  21 H :    0.029016
  22 H :    0.028965

  Mayer bond orders larger than 0.100000
B(  0-C ,  1-C ) :   1.5000 B(  0-C ,  4-C ) :   0.1042 B(  0-C ,  5-S ) :   1.1393
B(  0-C , 21-H ) :   0.9618 B(  1-C ,  2-C ) :   1.2849 B(  1-C ,  3-H ) :   0.9790
B(  2-C ,  4-C ) :   1.4594 B(  2-C ,  6-Si) :   0.8805 B(  4-C ,  5-S ) :   1.1326
B(  4-C ,  8-C ) :   1.1874 B(  6-Si,  7-C ) :   0.8803 B(  6-Si, 13-C ) :   1.0457
B(  6-Si, 17-C ) :   1.0455 B(  7-C ,  8-C ) :   1.4593 B(  7-C , 11-C ) :   1.2856
B(  8-C ,  9-S ) :   1.1325 B(  8-C , 10-C ) :   0.1045 B(  9-S , 10-C ) :   1.1393
B( 10-C , 11-C ) :   1.4990 B( 10-C , 22-H ) :   0.9618 B( 11-C , 12-H ) :   0.9789
B( 13-C , 14-H ) :   0.9458 B( 13-C , 15-H ) :   0.9484 B( 13-C , 16-H ) :   0.9484
B( 17-C , 18-H ) :   0.9460 B( 17-C , 19-H ) :   0.9483 B( 17-C , 20-H ) :   0.9484

Dispersion correction           -0.057069780
FINAL SINGLE POINT ENERGY     -1472.530839103989

DIPOLE MOMENT
-------------
                                X             Y             Z
Electronic contribution:     -0.27226     -17.24071       0.41539
Nuclear contribution   :      0.28194      17.86396      -0.43014
                        -----------------------------------------
Total Dipole Moment    :      0.00968       0.62325      -0.01475
                        -----------------------------------------
Magnitude (a.u.)       :      0.62350
Magnitude (Debye)      :      1.58481

Rotational constants in cm-1:     0.021947     0.019864     0.011593
Rotational constants in MHz :   657.962597   595.522501   347.547980

                             ****ORCA TERMINATED NORMALLY****
TOTAL RUN TIME: 0 days 0 hours 3 minutes 20 seconds 134 msec
