                         Program Version 4.2.0 -  RELEASE  -
|  1> ! RI BP86 def2-SVP def2/J D3BJ TIGHTSCF  Opt Grid3 FinalGrid5
|  2> %maxcore 3000
|  3> %geom
|  4> Constraints
|  5> {D 1 0 60 66 0.0 C}
|  6> {D 10 11 18 19 0.0 C}
|  7> {D 23 22 24 25 0.0 C}
|  8> {D 30 31 34 35 0.0 C}
|  9> {D 36 38 41 43 0.0 C}
| 10> end
| 11> end
| 12>
| 13> *xyz 0 1
| 14> C	-5.493460	0.452861	0.062135
| 15> C	-4.347810	-0.223719	0.162085
| 16> N	-5.191190	1.801611	-0.089825
| 17> C	-3.204820	0.671121	0.053805
| 18> C	-3.787240	2.027581	-0.113035
| 19> C	-6.157630	2.860901	-0.247435
| 20> H	-6.857950	2.608561	-1.050035
| 21> H	-5.663090	3.803301	-0.494555
| 22> H	-6.701680	2.991551	0.693045
| 23> C	-3.867050	-1.591499	0.323065
| 24> N	-2.473930	-1.426999	0.283965
| 25> C	-2.087520	-0.075279	0.100585
| 26> O	-3.186080	3.074131	-0.243875
| 27> O	-4.514410	-2.608269	0.466135
| 28> C	-1.641230	-2.593249	0.415325
| 29> H	-2.212260	-3.427269	0.837045
| 30> H	-0.797310	-2.390869	1.077195
| 31> H	-1.309860	-2.906059	-0.578735
| 32> C	-0.708520	0.329981	-0.072295
| 33> C	0.301940	-0.456669	-0.618875
| 34> C	1.530390	0.205191	-0.505345
| 35> H	0.183100	-1.444089	-1.035335
| 36> C	1.296830	1.462731	0.019105
| 37> O	-0.082090	1.553251	0.262625
| 38> C	2.338640	2.480921	0.223085
| 39> C	2.245810	3.862771	0.268065
| 40> C	3.549360	4.494631	0.281755
| 41> H	1.308880	4.404741	0.218375
| 42> S	4.001360	1.971501	0.398675
| 43> C	4.587960	3.610191	0.311045
| 44> S	4.149340	6.139541	0.230655
| 45> C	5.798070	5.600531	0.083145
| 46> C	5.889420	4.228901	0.232065
| 47> H	6.823920	3.680781	0.202575
| 48> C	6.858780	6.557871	-0.231705
| 49> C	6.738480	7.607521	-1.124815
| 50> C	7.974070	8.272081	-1.180545
| 51> H	5.849670	7.857051	-1.687415
| 52> C	8.844700	7.684191	-0.267725
| 53> H	8.204270	9.136341	-1.788695
| 54> O	8.164080	6.579371	0.263265
| 55> C	10.143300	8.195431	0.070125
| 56> C	11.331210	7.568311	0.045005
| 57> N	10.358410	9.566441	0.339165
| 58> C	11.718200	9.882071	0.439475
| 59> C	12.348500	8.583181	0.257435
| 60> O	12.277450	10.950541	0.607305
| 61> C	12.080190	6.296831	-0.174135
| 62> C	13.563190	8.051911	0.182555
| 63> N	13.437500	6.698471	-0.056785
| 64> H	14.520230	8.546871	0.270155
| 65> O	11.622760	5.199771	-0.397925
| 66> C	9.357720	10.592601	0.475675
| 67> H	8.494590	10.212521	1.026565
| 68> H	9.064590	10.939941	-0.518655
| 69> H	9.771750	11.447151	1.020905
| 70> C	14.582050	5.826891	-0.189425
| 71> H	14.269550	4.784121	-0.269665
| 72> H	15.228300	5.947871	0.687135
| 73> H	15.144530	6.110461	-1.085195
| 74> C	-6.777930	-0.166259	0.065775
| 75> C	-8.034790	0.288341	0.466215
| 76> C	-8.975560	-0.760259	0.287675
| 77> H	-8.258720	1.263191	0.872765
| 78> C	-8.263970	-1.812789	-0.220135
| 79> H	-10.033250	-0.754639	0.513035
| 80> O	-6.966550	-1.465579	-0.374575
| 81> H	-8.515830	-2.825169	-0.507155
| 82> H	2.489950	-0.190069	-0.808275
| 83> **                         ****END OF INPUT****
 Total Charge           Charge          ....    0
 Multiplicity           Mult            ....    1
 Number of Electrons    NEL             ....  342
Dispersion correction           -0.161870982
FINAL SINGLE POINT ENERGY     -2849.228901126286
Dispersion correction            ... done
Dispersion correction           -0.161654420
FINAL SINGLE POINT ENERGY     -2849.300527869721
Dispersion correction            ... done
Dispersion correction           -0.162078351
FINAL SINGLE POINT ENERGY     -2849.347832790195
Dispersion correction            ... done
FINAL SINGLE POINT ENERGY     -2849.375082786714
FINAL SINGLE POINT ENERGY     -2849.389327315983
FINAL SINGLE POINT ENERGY     -2849.397972340048
FINAL SINGLE POINT ENERGY     -2849.403885330780
FINAL SINGLE POINT ENERGY     -2849.408014472525
FINAL SINGLE POINT ENERGY     -2849.410790741250
FINAL SINGLE POINT ENERGY     -2849.412550283634
FINAL SINGLE POINT ENERGY     -2849.413574976914
FINAL SINGLE POINT ENERGY     -2849.414117522213
FINAL SINGLE POINT ENERGY     -2849.414322102225
FINAL SINGLE POINT ENERGY     -2849.414556080819
FINAL SINGLE POINT ENERGY     -2849.414633189292
Dispersion correction            ... done
Dispersion correction           -0.164593813
FINAL SINGLE POINT ENERGY     -2849.414653934182
Dispersion correction            ... done
Dispersion correction           -0.164615949
FINAL SINGLE POINT ENERGY     -2849.414665632157
Dispersion correction            ... done
                    ***********************HURRAY********************

CARTESIAN COORDINATES (ANGSTROEM)
---------------------------------
  C     -4.138756    0.964774   -0.021781
  C     -3.249634   -0.124825    0.022020
  N     -3.377983    2.128679   -0.047953
  C     -1.912993    0.383841    0.022250
  C     -1.953462    1.839970   -0.022869
  C     -3.840892    3.496216   -0.095009
  H     -4.428117    3.700086   -1.014524
  H     -2.929958    4.126033   -0.101610
  H     -4.452450    3.753955    0.794645
  C     -3.206537   -1.585536    0.066196
  N     -1.776839   -1.872641    0.091094
  C     -1.022934   -0.709797    0.065869
  O     -1.110294    2.736815   -0.039678
  O     -4.049570   -2.473811    0.082707
  C     -1.300278   -3.234526    0.139448
  H     -2.203616   -3.875618    0.146083
  H     -0.710059   -3.430806    1.059155
  H     -0.684475   -3.485895   -0.749560
  C      0.402292   -0.652757    0.081997
  C      1.472497   -1.558279    0.122370
  C      2.662981   -0.785195    0.114384
  H      1.405731   -2.648928    0.153587
  C      2.268065    0.556961    0.070692
  O      0.907559    0.622803    0.051629
  C      2.938666    1.822482    0.042519
  C      2.302259    3.070570   -0.001630
  C      3.255962    4.113734   -0.019864
  H      1.205271    3.162772   -0.018284
  S      4.703290    1.938497    0.062914
  C      4.609333    3.682366    0.010092
  S      3.161667    5.857362   -0.071834
  C      4.926461    5.973651   -0.053291
  C      5.562790    4.725567   -0.008474
  H      6.659829    4.632559    0.007819
  C      5.596583    7.239350   -0.083367
  C      5.200458    8.581577   -0.129105
  C      6.390558    9.355192   -0.136747
  H      4.169746    8.951269   -0.153709
  C      7.460838    8.450928   -0.096110
  H      6.456575   10.445962   -0.168849
  O      6.956404    7.174609   -0.063913
  C      8.886833    8.502874   -0.079439
  C      9.767116    7.404726   -0.036040
  N      9.643540    9.668051   -0.104511
  C     11.069754    9.376539   -0.077336
  C     11.109736    7.916981   -0.034031
  O     11.925634   10.252021   -0.090332
  C      9.817162    5.947148    0.003675
  C     11.984261    6.841033    0.005182
  N     11.252194    5.676559    0.028240
  H     13.081705    6.822523    0.018296
  O      8.985120    5.039478    0.018925
  C      9.168186   11.030967   -0.144192
  H      8.554833   11.278470    0.747577
  H      8.576357   11.233258   -1.061488
  H     10.071654   11.671871   -0.150002
  C     11.767626    4.324821    0.066872
  H     10.888481    3.653282    0.114550
  H     12.402538    4.157641    0.961263
  H     12.355186    4.085126   -0.843909
  C     -5.573050    0.941219   -0.037176
  C     -6.588991    1.899912   -0.078909
  C     -7.824395    1.183340   -0.070736
  H     -6.468082    2.984965   -0.111530
  C     -7.490003   -0.155601   -0.025278
  H     -8.834740    1.605516   -0.095439
  O     -6.143774   -0.310185   -0.004768
  H     -8.074051   -1.081035   -0.003063
  H      3.693510   -1.155569    0.137906

 Multiplicity           Mult            ....    1
 Number of Electrons    NEL             ....  342
 Basis Dimension        Dim             ....  776

ORBITAL ENERGIES
----------------

  NO   OCC          E(Eh)            E(eV)
   0   2.0000     -88.129634     -2398.1293
   1   2.0000     -88.129316     -2398.1206
   2   2.0000     -18.858943      -513.1779
   3   2.0000     -18.858167      -513.1568
   4   2.0000     -18.856579      -513.1136
   5   2.0000     -18.756363      -510.3866
   6   2.0000     -18.756177      -510.3815
   7   2.0000     -18.755409      -510.3606
   8   2.0000     -18.751663      -510.2587
   9   2.0000     -14.066543      -382.7701
  10   2.0000     -14.065920      -382.7532
  11   2.0000     -14.065549      -382.7430
  12   2.0000     -14.064181      -382.7058
  13   2.0000     -10.011868      -272.4368
  14   2.0000     -10.009967      -272.3851
  15   2.0000     -10.009783      -272.3800
  16   2.0000     -10.008426      -272.3431
  17   2.0000      -9.996835      -272.0277
  18   2.0000      -9.995087      -271.9801
  19   2.0000      -9.992856      -271.9194
  20   2.0000      -9.991849      -271.8920
  21   2.0000      -9.989192      -271.8197
  22   2.0000      -9.986401      -271.7438
  23   2.0000      -9.982878      -271.6479
  24   2.0000      -9.982493      -271.6374
  25   2.0000      -9.981558      -271.6120
  26   2.0000      -9.971326      -271.3336
  27   2.0000      -9.963558      -271.1222
  28   2.0000      -9.963435      -271.1189
  29   2.0000      -9.959692      -271.0170
  30   2.0000      -9.957717      -270.9633
  31   2.0000      -9.957522      -270.9580
  32   2.0000      -9.957503      -270.9574
  33   2.0000      -9.956630      -270.9337
  34   2.0000      -9.956368      -270.9265
  35   2.0000      -9.945663      -270.6353
  36   2.0000      -9.943565      -270.5782
  37   2.0000      -9.939469      -270.4667
  38   2.0000      -9.938401      -270.4376
  39   2.0000      -9.938332      -270.4358
  40   2.0000      -9.935464      -270.3577
  41   2.0000      -9.934770      -270.3388
  42   2.0000      -9.933816      -270.3129
  43   2.0000      -9.915877      -269.8247
  44   2.0000      -9.915627      -269.8179
  45   2.0000      -9.915543      -269.8157
  46   2.0000      -9.913835      -269.7692
  47   2.0000      -7.725496      -210.2214
  48   2.0000      -7.725182      -210.2129
  49   2.0000      -5.752864      -156.5434
  50   2.0000      -5.752556      -156.5350
  51   2.0000      -5.748709      -156.4303
  52   2.0000      -5.748399      -156.4219
  53   2.0000      -5.743853      -156.2982
  54   2.0000      -5.743534      -156.2895
  55   2.0000      -1.035295       -28.1718
  56   2.0000      -1.033687       -28.1280
  57   2.0000      -1.030639       -28.0451
  58   2.0000      -0.945679       -25.7332
  59   2.0000      -0.943869       -25.6840
  60   2.0000      -0.939634       -25.5687
  61   2.0000      -0.938671       -25.5425
  62   2.0000      -0.884239       -24.0614
  63   2.0000      -0.882908       -24.0251
  64   2.0000      -0.874812       -23.8049
  65   2.0000      -0.874592       -23.7988
  66   2.0000      -0.835902       -22.7461
  67   2.0000      -0.787503       -21.4291
  68   2.0000      -0.756171       -20.5765
  69   2.0000      -0.755207       -20.5502
  70   2.0000      -0.742702       -20.2099
  71   2.0000      -0.741120       -20.1669
  72   2.0000      -0.737989       -20.0817
  73   2.0000      -0.736872       -20.0513
  74   2.0000      -0.727112       -19.7857
  75   2.0000      -0.717238       -19.5170
  76   2.0000      -0.699459       -19.0333
  77   2.0000      -0.690141       -18.7797
  78   2.0000      -0.684771       -18.6336
  79   2.0000      -0.668211       -18.1829
  80   2.0000      -0.651846       -17.7376
  81   2.0000      -0.648272       -17.6404
  82   2.0000      -0.634967       -17.2783
  83   2.0000      -0.627775       -17.0826
  84   2.0000      -0.615545       -16.7498
  85   2.0000      -0.611193       -16.6314
  86   2.0000      -0.600038       -16.3279
  87   2.0000      -0.576289       -15.6816
  88   2.0000      -0.568338       -15.4653
  89   2.0000      -0.564823       -15.3696
  90   2.0000      -0.562548       -15.3077
  91   2.0000      -0.542258       -14.7556
  92   2.0000      -0.534748       -14.5512
  93   2.0000      -0.531481       -14.4623
  94   2.0000      -0.531258       -14.4563
  95   2.0000      -0.523040       -14.2326
  96   2.0000      -0.513451       -13.9717
  97   2.0000      -0.509434       -13.8624
  98   2.0000      -0.506649       -13.7866
  99   2.0000      -0.501590       -13.6489
 100   2.0000      -0.496468       -13.5096
 101   2.0000      -0.488524       -13.2934
 102   2.0000      -0.476033       -12.9535
 103   2.0000      -0.461908       -12.5692
 104   2.0000      -0.446724       -12.1560
 105   2.0000      -0.446148       -12.1403
 106   2.0000      -0.445101       -12.1118
 107   2.0000      -0.441262       -12.0073
 108   2.0000      -0.441008       -12.0004
 109   2.0000      -0.440061       -11.9747
 110   2.0000      -0.439450       -11.9581
 111   2.0000      -0.438776       -11.9397
 112   2.0000      -0.433977       -11.8091
 113   2.0000      -0.431806       -11.7501
 114   2.0000      -0.425662       -11.5829
 115   2.0000      -0.419143       -11.4054
 116   2.0000      -0.418733       -11.3943
 117   2.0000      -0.414871       -11.2892
 118   2.0000      -0.407489       -11.0883
 119   2.0000      -0.403845       -10.9892
 120   2.0000      -0.400897       -10.9090
 121   2.0000      -0.399953       -10.8833
 122   2.0000      -0.399069       -10.8592
 123   2.0000      -0.385927       -10.5016
 124   2.0000      -0.383334       -10.4310
 125   2.0000      -0.381036       -10.3685
 126   2.0000      -0.379008       -10.3133
 127   2.0000      -0.378549       -10.3008
 128   2.0000      -0.375819       -10.2265
 129   2.0000      -0.372775       -10.1437
 130   2.0000      -0.371089       -10.0978
 131   2.0000      -0.371008       -10.0956
 132   2.0000      -0.370248       -10.0750
 133   2.0000      -0.369798       -10.0627
 134   2.0000      -0.364408        -9.9160
 135   2.0000      -0.354102        -9.6356
 136   2.0000      -0.352508        -9.5922
 137   2.0000      -0.350740        -9.5441
 138   2.0000      -0.348907        -9.4943
 139   2.0000      -0.348065        -9.4713
 140   2.0000      -0.347096        -9.4450
 141   2.0000      -0.346657        -9.4330
 142   2.0000      -0.344289        -9.3686
 143   2.0000      -0.339489        -9.2380
 144   2.0000      -0.338692        -9.2163
 145   2.0000      -0.336469        -9.1558
 146   2.0000      -0.334089        -9.0910
 147   2.0000      -0.331329        -9.0159
 148   2.0000      -0.328397        -8.9361
 149   2.0000      -0.314586        -8.5603
 150   2.0000      -0.310713        -8.4549
 151   2.0000      -0.305009        -8.2997
 152   2.0000      -0.300109        -8.1664
 153   2.0000      -0.294721        -8.0198
 154   2.0000      -0.273492        -7.4421
 155   2.0000      -0.271760        -7.3950
 156   2.0000      -0.267962        -7.2916
 157   2.0000      -0.266382        -7.2486
 158   2.0000      -0.258404        -7.0315
 159   2.0000      -0.229458        -6.2439
 160   2.0000      -0.228724        -6.2239
 161   2.0000      -0.226565        -6.1652
 162   2.0000      -0.225389        -6.1331
 163   2.0000      -0.219082        -5.9615
 164   2.0000      -0.218857        -5.9554
 165   2.0000      -0.217814        -5.9270
 166   2.0000      -0.215575        -5.8661
 167   2.0000      -0.214889        -5.8474
 168   2.0000      -0.193136        -5.2555
 169   2.0000      -0.173694        -4.7264
 170   2.0000      -0.164428        -4.4743
 171   0.0000      -0.124175        -3.3790
 172   0.0000      -0.113210        -3.0806
 173   0.0000      -0.087315        -2.3760
 174   0.0000      -0.063744        -1.7346
 175   0.0000      -0.049910        -1.3581

MULLIKEN ATOMIC CHARGES
-----------------------
   0 C :    0.126141
   1 C :   -0.038441
   2 N :   -0.283446
   3 C :   -0.037447
   4 C :    0.146371
   5 C :    0.053658
   6 H :    0.053982
   7 H :    0.066199
   8 H :    0.053924
   9 C :    0.132330
  10 N :   -0.280784
  11 C :    0.104510
  12 O :   -0.177894
  13 O :   -0.164149
  14 C :    0.053153
  15 H :    0.068885
  16 H :    0.052333
  17 H :    0.052299
  18 C :    0.129433
  19 C :   -0.093641
  20 C :   -0.069348
  21 H :    0.003068
  22 C :    0.196512
  23 O :   -0.168598
  24 C :   -0.142481
  25 C :   -0.015985
  26 C :   -0.014154
  27 H :    0.032979
  28 S :    0.149563
  29 C :   -0.014798
  30 S :    0.149058
  31 C :   -0.143243
  32 C :   -0.015215
  33 H :    0.033058
  34 C :    0.197220
  35 C :   -0.069796
  36 C :   -0.092000
  37 H :    0.014901
  38 C :    0.128483
  39 H :    0.004063
  40 O :   -0.168279
  41 C :    0.115341
  42 C :   -0.056624
  43 N :   -0.281609
  44 C :    0.152666
  45 C :   -0.018563
  46 O :   -0.170571
  47 C :    0.152473
  48 C :    0.034271
  49 N :   -0.267674
  50 H :    0.030821
  51 O :   -0.176803
  52 C :    0.052040
  53 H :    0.053200
  54 H :    0.053178
  55 H :    0.069485
  56 C :    0.056331
  57 H :    0.066558
  58 H :    0.050287
  59 H :    0.051327
  60 C :    0.077245
  61 C :   -0.091170
  62 C :   -0.019682
  63 H :    0.001498
  64 C :    0.128021
  65 H :    0.019503
  66 O :   -0.150635
  67 H :    0.042234
  68 H :    0.014429
Sum of atomic charges:   -0.0000000

LOEWDIN ATOMIC CHARGES
----------------------
   0 C :    0.033798
   1 C :   -0.109586
   2 N :    0.000943
   3 C :   -0.110619
   4 C :    0.064666
   5 C :    0.007684
   6 H :    0.030649
   7 H :    0.042373
   8 H :    0.030622
   9 C :    0.061530
  10 N :   -0.002487
  11 C :    0.031121
  12 O :   -0.184981
  13 O :   -0.170377
  14 C :    0.007825
  15 H :    0.043786
  16 H :    0.030269
  17 H :    0.030234
  18 C :    0.018933
  19 C :   -0.053636
  20 C :   -0.067108
  21 H :    0.037888
  22 C :    0.029380
  23 O :    0.041525
  24 C :   -0.183321
  25 C :   -0.047728
  26 C :   -0.190564
  27 H :    0.050002
  28 S :    0.417787
  29 C :   -0.191466
  30 S :    0.417555
  31 C :   -0.185252
  32 C :   -0.046113
  33 H :    0.050009
  34 C :    0.031601
  35 C :   -0.068172
  36 C :   -0.050936
  37 H :    0.040059
  38 C :    0.016907
  39 H :    0.038293
  40 O :    0.042361
  41 C :    0.037340
  42 C :   -0.117344
  43 N :   -0.005593
  44 C :    0.064607
  45 C :   -0.121044
  46 O :   -0.171743
  47 C :    0.062374
  48 C :    0.060225
  49 N :    0.002424
  50 H :    0.036564
  51 O :   -0.183092
  52 C :    0.008131
  53 H :    0.030582
  54 H :    0.030548
  55 H :    0.044442
  56 C :    0.009933
  57 H :    0.041670
  58 H :    0.032519
  59 H :    0.032394
  60 C :    0.013694
  61 C :   -0.064133
  62 C :   -0.075698
  63 H :    0.035739
  64 C :    0.048003
  65 H :    0.040516
  66 O :    0.045793
  67 H :    0.035787
  68 H :    0.039908

  Mayer bond orders larger than 0.100000
B(  0-C ,  1-C ) :   1.2765 B(  0-C ,  2-N ) :   1.2007 B(  0-C , 60-C ) :   1.1068
B(  1-C ,  3-C ) :   1.2666 B(  1-C ,  9-C ) :   1.0014 B(  2-N ,  4-C ) :   0.9734
B(  2-N ,  5-C ) :   0.9895 B(  3-C ,  4-C ) :   1.0236 B(  3-C , 11-C ) :   1.2541
B(  4-C , 12-O ) :   2.0024 B(  5-C ,  6-H ) :   0.9590 B(  5-C ,  7-H ) :   0.9336
B(  5-C ,  8-H ) :   0.9590 B(  9-C , 10-N ) :   0.9517 B(  9-C , 13-O ) :   2.1118
B( 10-N , 11-C ) :   1.2101 B( 10-N , 14-C ) :   0.9895 B( 11-C , 18-C ) :   1.1069
B( 14-C , 15-H ) :   0.9355 B( 14-C , 16-H ) :   0.9597 B( 14-C , 17-H ) :   0.9597
B( 18-C , 19-C ) :   1.3535 B( 18-C , 22-C ) :   0.1280 B( 18-C , 23-O ) :   1.1539
B( 19-C , 20-C ) :   1.2406 B( 19-C , 21-H ) :   0.9981 B( 20-C , 22-C ) :   1.3787
B( 20-C , 68-H ) :   0.9869 B( 22-C , 23-O ) :   1.1736 B( 22-C , 24-C ) :   1.1699
B( 24-C , 25-C ) :   1.4082 B( 24-C , 28-S ) :   1.0889 B( 25-C , 26-C ) :   1.2633
B( 25-C , 27-H ) :   0.9688 B( 26-C , 29-C ) :   1.3385 B( 26-C , 30-S ) :   1.0727
B( 28-S , 29-C ) :   1.0717 B( 29-C , 32-C ) :   1.2650 B( 30-S , 31-C ) :   1.0879
B( 31-C , 32-C ) :   1.4077 B( 31-C , 34-C ) :   1.1704 B( 32-C , 33-H ) :   0.9685
B( 34-C , 35-C ) :   1.3771 B( 34-C , 38-C ) :   0.1280 B( 34-C , 40-O ) :   1.1766
B( 35-C , 36-C ) :   1.2417 B( 35-C , 37-H ) :   0.9871 B( 36-C , 38-C ) :   1.3563
B( 36-C , 39-H ) :   0.9978 B( 38-C , 40-O ) :   1.1510 B( 38-C , 41-C ) :   1.1103
B( 41-C , 42-C ) :   1.2859 B( 41-C , 43-N ) :   1.1989 B( 42-C , 45-C ) :   1.2507
B( 42-C , 47-C ) :   1.0311 B( 43-N , 44-C ) :   0.9511 B( 43-N , 52-C ) :   0.9890
B( 44-C , 45-C ) :   0.9909 B( 44-C , 46-O ) :   2.1140 B( 45-C , 48-C ) :   1.3786
B( 47-C , 49-N ) :   0.9744 B( 47-C , 51-O ) :   1.9978 B( 48-C , 49-N ) :   1.2158
B( 48-C , 50-H ) :   0.9740 B( 49-N , 56-C ) :   0.9801 B( 52-C , 53-H ) :   0.9599
B( 52-C , 54-H ) :   0.9598 B( 52-C , 55-H ) :   0.9368 B( 56-C , 57-H ) :   0.9466
B( 56-C , 58-H ) :   0.9669 B( 56-C , 59-H ) :   0.9669 B( 60-C , 61-C ) :   1.4017
B( 60-C , 64-C ) :   0.1061 B( 60-C , 66-O ) :   1.1864 B( 61-C , 62-C ) :   1.2320
B( 61-C , 63-H ) :   0.9987 B( 62-C , 64-C ) :   1.4690 B( 62-C , 65-H ) :   0.9847
B( 64-C , 66-O ) :   1.1624 B( 64-C , 67-H ) :   0.9925

Dispersion correction           -0.164617167
FINAL SINGLE POINT ENERGY     -2849.414668577689

DIPOLE MOMENT
-------------
                                X             Y             Z
Electronic contribution:      1.37446      -1.85045       0.08835
Nuclear contribution   :     -2.29071       1.76486      -0.09782
                        -----------------------------------------
Total Dipole Moment    :     -0.91625      -0.08558      -0.00947
                        -----------------------------------------
Magnitude (a.u.)       :      0.92029
Magnitude (Debye)      :      2.33918

Rotational constants in cm-1:     0.005480     0.000584     0.000528
Rotational constants in MHz :   164.282901    17.507975    15.828356

                             ****ORCA TERMINATED NORMALLY****
TOTAL RUN TIME: 0 days 1 hours 38 minutes 23 seconds 721 msec
