                         Program Version 4.2.0 -  RELEASE  -
|  1> ! RI BP86 def2-SVP def2/J D3BJ TIGHTSCF  Opt Grid3 FinalGrid5
|  2> %maxcore 3000
|  3> %geom
|  4> Constraints
|  5> {D 1 0 60 66 0.0 C}
|  6> {D 10 11 18 19 0.0 C}
|  7> {D 23 22 24 25 0.0 C}
|  8> {D 30 31 34 35 0.0 C}
|  9> {D 36 38 41 43 0.0 C}
| 10> end
| 11> end
| 12>
| 13> *xyz 0 1
| 14> C	-5.483162	2.403031	-0.023594
| 15> C	-5.172722	1.101761	-0.056764
| 16> C	-3.733942	0.952761	-0.037804
| 17> C	-3.158052	2.310611	0.005366
| 18> N	-4.300182	3.143581	0.010496
| 19> O	-1.986082	2.625341	0.030126
| 20> C	-3.436712	-0.351419	-0.056404
| 21> C	-5.762942	-0.245659	-0.100504
| 22> N	-4.631092	-1.083519	-0.100704
| 23> C	-4.177232	4.576371	0.049506
| 24> H	-3.125912	4.875521	0.088196
| 25> H	-4.676452	4.961101	0.943146
| 26> H	-4.620072	5.002591	-0.855074
| 27> C	-4.791952	-2.512169	-0.147334
| 28> H	-5.846332	-2.783869	-0.255644
| 29> H	-4.430102	-2.947169	0.788276
| 30> H	-4.251102	-2.915769	-1.007434
| 31> C	-2.113732	-0.886579	-0.025574
| 32> C	-1.681212	-2.203219	0.084566
| 33> C	-0.273852	-2.220419	0.076516
| 34> H	-2.294472	-3.084739	0.171726
| 35> C	0.153278	-0.911419	-0.021924
| 36> H	0.355278	-3.096469	0.149896
| 37> O	-0.962042	-0.112409	-0.093594
| 38> C	1.511838	-0.423199	-0.034004
| 39> C	1.965458	0.875841	-0.151624
| 40> C	3.399958	0.966251	-0.093884
| 41> H	1.303768	1.728541	-0.262514
| 42> C	4.001578	-0.263909	0.085506
| 43> H	3.955968	1.896011	-0.153304
| 44> S	2.828958	-1.508209	0.126516
| 45> C	5.403528	-0.568909	0.235016
| 46> C	5.979328	-1.739619	0.692146
| 47> C	7.376268	-1.553289	0.681016
| 48> H	5.452028	-2.625429	1.018046
| 49> C	7.642578	-0.281109	0.191666
| 50> H	8.105568	-2.278039	1.009606
| 51> O	6.415498	0.309291	-0.060024
| 52> C	-6.822332	2.890031	-0.015824
| 53> C	-7.355932	4.178681	-0.040554
| 54> C	-8.771372	4.087841	-0.016064
| 55> H	-6.801242	5.103041	-0.074834
| 56> C	-9.054222	2.750831	0.021436
| 57> H	-9.489702	4.895161	-0.026254
| 58> O	-7.909402	2.035391	0.024816
| 59> H	-9.967022	2.171551	0.047896
| 60> C	8.888228	0.368841	-0.018344
| 61> C	9.058708	1.695391	0.000526
| 62> C	10.458588	1.964871	-0.223184
| 63> C	11.160358	0.688891	-0.394704
| 64> N	10.121668	-0.251889	-0.264524
| 65> C	10.373138	-1.662149	-0.405994
| 66> H	9.638248	-2.109039	-1.080944
| 67> H	10.330568	-2.134049	0.579366
| 68> H	11.371708	-1.833439	-0.819554
| 69> C	8.385178	3.000631	0.180686
| 70> C	10.660788	3.278141	-0.195234
| 71> N	9.452078	3.914331	0.035626
| 72> H	11.587668	3.818441	-0.321054
| 73> O	7.213288	3.215751	0.407766
| 74> O	12.346708	0.531121	-0.597104
| 75> C	9.306938	5.343221	0.141916
| 76> H	8.254678	5.615171	0.258016
| 77> H	9.704738	5.812711	-0.762644
| 78> H	9.867968	5.693111	1.013466
| 79> O	-6.934552	-0.559769	-0.132204
| 80> **                         ****END OF INPUT****
ORCA finished by error termination in GSTEP
                         Program Version 4.2.0 -  RELEASE  -
|  1> ! RI BP86 def2-SVP def2/J D3BJ TIGHTSCF  Opt Grid3 FinalGrid5
|  2> %maxcore 3000
|  3> %geom
|  4> Constraints
|  5> {D 1 0 38 39 0.0 C}
|  6> {D 2 6 17 18 0.0 C}
|  7> {D 19 21 24 25 0.0 C}
|  8> {D 26 28 31 32 0.0 C}
|  9> {D 33 35 46 47 0.0 C}
| 10> end
| 11> end
| 12>
| 13> *xyz 0 1
| 14> C	-5.483162	2.403031	-0.023594
| 15> C	-5.172722	1.101761	-0.056764
| 16> C	-3.733942	0.952761	-0.037804
| 17> C	-3.158052	2.310611	0.005366
| 18> N	-4.300182	3.143581	0.010496
| 19> O	-1.986082	2.625341	0.030126
| 20> C	-3.436712	-0.351419	-0.056404
| 21> C	-5.762942	-0.245659	-0.100504
| 22> N	-4.631092	-1.083519	-0.100704
| 23> C	-4.177232	4.576371	0.049506
| 24> H	-3.125912	4.875521	0.088196
| 25> H	-4.676452	4.961101	0.943146
| 26> H	-4.620072	5.002591	-0.855074
| 27> C	-4.791952	-2.512169	-0.147334
| 28> H	-5.846332	-2.783869	-0.255644
| 29> H	-4.430102	-2.947169	0.788276
| 30> H	-4.251102	-2.915769	-1.007434
| 31> C	-2.113732	-0.886579	-0.025574
| 32> C	-1.681212	-2.203219	0.084566
| 33> C	-0.273852	-2.220419	0.076516
| 34> H	-2.294472	-3.084739	0.171726
| 35> C	0.153278	-0.911419	-0.021924
| 36> H	0.355278	-3.096469	0.149896
| 37> O	-0.962042	-0.112409	-0.093594
| 38> C	1.511838	-0.423199	-0.034004
| 39> C	1.965458	0.875841	-0.151624
| 40> C	3.399958	0.966251	-0.093884
| 41> H	1.303768	1.728541	-0.262514
| 42> C	4.001578	-0.263909	0.085506
| 43> H	3.955968	1.896011	-0.153304
| 44> S	2.828958	-1.508209	0.126516
| 45> C	5.403528	-0.568909	0.235016
| 46> C	5.979328	-1.739619	0.692146
| 47> C	7.376268	-1.553289	0.681016
| 48> H	5.452028	-2.625429	1.018046
| 49> C	7.642578	-0.281109	0.191666
| 50> H	8.105568	-2.278039	1.009606
| 51> O	6.415498	0.309291	-0.060024
| 52> C	-6.822332	2.890031	-0.015824
| 53> C	-7.355932	4.178681	-0.040554
| 54> C	-8.771372	4.087841	-0.016064
| 55> H	-6.801242	5.103041	-0.074834
| 56> C	-9.054222	2.750831	0.021436
| 57> H	-9.489702	4.895161	-0.026254
| 58> O	-7.909402	2.035391	0.024816
| 59> H	-9.967022	2.171551	0.047896
| 60> C	8.888228	0.368841	-0.018344
| 61> C	9.058708	1.695391	0.000526
| 62> C	10.458588	1.964871	-0.223184
| 63> C	11.160358	0.688891	-0.394704
| 64> N	10.121668	-0.251889	-0.264524
| 65> C	10.373138	-1.662149	-0.405994
| 66> H	9.638248	-2.109039	-1.080944
| 67> H	10.330568	-2.134049	0.579366
| 68> H	11.371708	-1.833439	-0.819554
| 69> C	8.385178	3.000631	0.180686
| 70> C	10.660788	3.278141	-0.195234
| 71> N	9.452078	3.914331	0.035626
| 72> H	11.587668	3.818441	-0.321054
| 73> O	7.213288	3.215751	0.407766
| 74> O	12.346708	0.531121	-0.597104
| 75> C	9.306938	5.343221	0.141916
| 76> H	8.254678	5.615171	0.258016
| 77> H	9.704738	5.812711	-0.762644
| 78> H	9.867968	5.693111	1.013466
| 79> O	-6.934552	-0.559769	-0.132204
| 80> **                         ****END OF INPUT****
 Total Charge           Charge          ....    0
 Multiplicity           Mult            ....    1
 Number of Electrons    NEL             ....  314
Dispersion correction           -0.134967668
FINAL SINGLE POINT ENERGY     -2371.478112864705
Dispersion correction            ... done
                         Program Version 4.2.0 -  RELEASE  -
|  1> ! RI BP86 def2-SVP def2/J D3BJ TIGHTSCF  Opt Grid3 FinalGrid5
|  2> %maxcore 3000
|  3> %geom
|  4> Constraints
|  5> {D 1 0 38 44 0.0 C}
|  6> {D 2 6 17 23 0.0 C}
|  7> {D 19 21 24 30 0.0 C}
|  8> {D 26 28 31 37 0.0 C}
|  9> {D 33 35 46 50 0.0 C}
| 10> end
| 11> end
| 12>
| 13> *xyz 0 1
| 14> C	-5.483162	2.403031	-0.023594
| 15> C	-5.172722	1.101761	-0.056764
| 16> C	-3.733942	0.952761	-0.037804
| 17> C	-3.158052	2.310611	0.005366
| 18> N	-4.300182	3.143581	0.010496
| 19> O	-1.986082	2.625341	0.030126
| 20> C	-3.436712	-0.351419	-0.056404
| 21> C	-5.762942	-0.245659	-0.100504
| 22> N	-4.631092	-1.083519	-0.100704
| 23> C	-4.177232	4.576371	0.049506
| 24> H	-3.125912	4.875521	0.088196
| 25> H	-4.676452	4.961101	0.943146
| 26> H	-4.620072	5.002591	-0.855074
| 27> C	-4.791952	-2.512169	-0.147334
| 28> H	-5.846332	-2.783869	-0.255644
| 29> H	-4.430102	-2.947169	0.788276
| 30> H	-4.251102	-2.915769	-1.007434
| 31> C	-2.113732	-0.886579	-0.025574
| 32> C	-1.681212	-2.203219	0.084566
| 33> C	-0.273852	-2.220419	0.076516
| 34> H	-2.294472	-3.084739	0.171726
| 35> C	0.153278	-0.911419	-0.021924
| 36> H	0.355278	-3.096469	0.149896
| 37> O	-0.962042	-0.112409	-0.093594
| 38> C	1.511838	-0.423199	-0.034004
| 39> C	1.965458	0.875841	-0.151624
| 40> C	3.399958	0.966251	-0.093884
| 41> H	1.303768	1.728541	-0.262514
| 42> C	4.001578	-0.263909	0.085506
| 43> H	3.955968	1.896011	-0.153304
| 44> S	2.828958	-1.508209	0.126516
| 45> C	5.403528	-0.568909	0.235016
| 46> C	5.979328	-1.739619	0.692146
| 47> C	7.376268	-1.553289	0.681016
| 48> H	5.452028	-2.625429	1.018046
| 49> C	7.642578	-0.281109	0.191666
| 50> H	8.105568	-2.278039	1.009606
| 51> O	6.415498	0.309291	-0.060024
| 52> C	-6.822332	2.890031	-0.015824
| 53> C	-7.355932	4.178681	-0.040554
| 54> C	-8.771372	4.087841	-0.016064
| 55> H	-6.801242	5.103041	-0.074834
| 56> C	-9.054222	2.750831	0.021436
| 57> H	-9.489702	4.895161	-0.026254
| 58> O	-7.909402	2.035391	0.024816
| 59> H	-9.967022	2.171551	0.047896
| 60> C	8.888228	0.368841	-0.018344
| 61> C	9.058708	1.695391	0.000526
| 62> C	10.458588	1.964871	-0.223184
| 63> C	11.160358	0.688891	-0.394704
| 64> N	10.121668	-0.251889	-0.264524
| 65> C	10.373138	-1.662149	-0.405994
| 66> H	9.638248	-2.109039	-1.080944
| 67> H	10.330568	-2.134049	0.579366
| 68> H	11.371708	-1.833439	-0.819554
| 69> C	8.385178	3.000631	0.180686
| 70> C	10.660788	3.278141	-0.195234
| 71> N	9.452078	3.914331	0.035626
| 72> H	11.587668	3.818441	-0.321054
| 73> O	7.213288	3.215751	0.407766
| 74> O	12.346708	0.531121	-0.597104
| 75> C	9.306938	5.343221	0.141916
| 76> H	8.254678	5.615171	0.258016
| 77> H	9.704738	5.812711	-0.762644
| 78> H	9.867968	5.693111	1.013466
| 79> O	-6.934552	-0.559769	-0.132204
| 80> **                         ****END OF INPUT****
Dispersion correction           -0.149235879
FINAL SINGLE POINT ENERGY     -2375.057849722836
Dispersion correction            ... done
Dispersion correction           -0.149078402
FINAL SINGLE POINT ENERGY     -2375.099015416195
Dispersion correction            ... done
FINAL SINGLE POINT ENERGY     -2375.117486136274
FINAL SINGLE POINT ENERGY     -2375.122674132475
FINAL SINGLE POINT ENERGY     -2375.123797746841
FINAL SINGLE POINT ENERGY     -2375.124191663209
FINAL SINGLE POINT ENERGY     -2375.124337161649
FINAL SINGLE POINT ENERGY     -2375.124417876993
FINAL SINGLE POINT ENERGY     -2375.124468405375
FINAL SINGLE POINT ENERGY     -2375.124481404135
Dispersion correction            ... done
Dispersion correction           -0.150352134
FINAL SINGLE POINT ENERGY     -2375.124486525743
Dispersion correction            ... done
Dispersion correction           -0.150350784
FINAL SINGLE POINT ENERGY     -2375.124488590068
Dispersion correction            ... done
                    ***********************HURRAY********************

CARTESIAN COORDINATES (ANGSTROEM)
---------------------------------
  C     -4.377279    2.644254   -0.004055
  C     -4.443913    1.238379    0.008197
  C     -3.109743    0.724212    0.010690
  C     -2.166397    1.835487    0.000062
  N     -3.034391    3.003032   -0.008982
  O     -0.941039    1.938397   -0.002309
  C     -3.176910   -0.684305    0.023146
  C     -5.387604    0.122302    0.019204
  N     -4.515456   -1.046614    0.028333
  C     -2.464145    4.330169   -0.020624
  H     -1.365547    4.189504   -0.020396
  H     -2.754526    4.910549    0.879752
  H     -2.755989    4.895411   -0.930117
  C     -5.072938   -2.378136    0.040410
  H     -6.173195   -2.249168    0.041721
  H     -4.773740   -2.941406    0.949199
  H     -4.777765   -2.956168   -0.860416
  C     -2.079188   -1.596104    0.029358
  C     -1.897904   -2.986815    0.041372
  C     -0.497580   -3.216308    0.041469
  H     -2.681739   -3.748602    0.049385
  C      0.114796   -1.957730    0.029185
  H      0.014672   -4.184450    0.049293
  O     -0.846989   -0.992090    0.022065
  C      1.464625   -1.478214    0.022860
  C      1.866814   -0.134269    0.010323
  C      3.271160    0.016988    0.007586
  H      1.128859    0.682695    0.003780
  C      3.950354   -1.210365    0.017912
  H      3.817523    0.972770   -0.001884
  S      2.839005   -2.566544    0.030677
  C      5.371256   -1.391999    0.018530
  C      6.236360   -2.492863    0.028486
  C      7.556212   -1.971700    0.023732
  H      5.940541   -3.547436    0.037174
  C      7.438776   -0.574928    0.010796
  H      8.483910   -2.549782    0.028703
  O      6.106260   -0.245155    0.007938
  C     -5.460514    3.584743   -0.010390
  C     -5.575047    4.977461   -0.022535
  C     -6.972911    5.270005   -0.022960
  H     -4.758971    5.703419   -0.030403
  C     -7.619372    4.049915   -0.011116
  H     -7.442241    6.259617   -0.030943
  O     -6.721495    3.034786   -0.003559
  H     -8.672551    3.751882   -0.006799
  C      8.314949    0.552195    0.000947
  C      7.942633    1.909542   -0.012742
  C      9.144760    2.696436   -0.020411
  C     10.303643    1.807934   -0.010740
  N      9.703386    0.481538    0.002440
  C     10.530939   -0.701627    0.015002
  H     10.364634   -1.330495   -0.884772
  H     10.358901   -1.314618    0.924498
  H     11.578993   -0.342865    0.014761
  C      6.790721    2.805407   -0.021744
  C      8.785897    4.036623   -0.033819
  N      7.414001    4.127836   -0.035186
  H      9.415676    4.935703   -0.042858
  O      5.568983    2.663315   -0.020870
  O     11.515014    1.987329   -0.011995
  C      6.620384    5.337844   -0.044568
  H      5.560144    5.019073   -0.069577
  H      6.835154    5.958074   -0.939278
  H      6.792711    5.946693    0.867463
  O     -6.608582    0.024124    0.021726

 Multiplicity           Mult            ....    1
 Number of Electrons    NEL             ....  314
 Basis Dimension        Dim             ....  730

ORBITAL ENERGIES
----------------

  NO   OCC          E(Eh)            E(eV)
   0   2.0000     -88.131368     -2398.1764
   1   2.0000     -18.858569      -513.1678
   2   2.0000     -18.857763      -513.1458
   3   2.0000     -18.856351      -513.1074
   4   2.0000     -18.755148      -510.3535
   5   2.0000     -18.754892      -510.3466
   6   2.0000     -18.753918      -510.3201
   7   2.0000     -18.750822      -510.2358
   8   2.0000     -14.065631      -382.7453
   9   2.0000     -14.064851      -382.7241
  10   2.0000     -14.064491      -382.7142
  11   2.0000     -14.063398      -382.6845
  12   2.0000     -10.010853      -272.4091
  13   2.0000     -10.008689      -272.3503
  14   2.0000     -10.008467      -272.3442
  15   2.0000     -10.007593      -272.3205
  16   2.0000      -9.996401      -272.0159
  17   2.0000      -9.994910      -271.9753
  18   2.0000      -9.992438      -271.9081
  19   2.0000      -9.991659      -271.8869
  20   2.0000      -9.988716      -271.8068
  21   2.0000      -9.985503      -271.7194
  22   2.0000      -9.982128      -271.6275
  23   2.0000      -9.982077      -271.6261
  24   2.0000      -9.981265      -271.6040
  25   2.0000      -9.970840      -271.3203
  26   2.0000      -9.961349      -271.0621
  27   2.0000      -9.961195      -271.0579
  28   2.0000      -9.958957      -270.9970
  29   2.0000      -9.956894      -270.9409
  30   2.0000      -9.956358      -270.9263
  31   2.0000      -9.956326      -270.9254
  32   2.0000      -9.944964      -270.6162
  33   2.0000      -9.943102      -270.5656
  34   2.0000      -9.939175      -270.4587
  35   2.0000      -9.938331      -270.4357
  36   2.0000      -9.937936      -270.4250
  37   2.0000      -9.933460      -270.3032
  38   2.0000      -9.926370      -270.1103
  39   2.0000      -9.925897      -270.0974
  40   2.0000      -9.915155      -269.8051
  41   2.0000      -9.914910      -269.7984
  42   2.0000      -9.914710      -269.7930
  43   2.0000      -9.912938      -269.7447
  44   2.0000      -7.727555      -210.2775
  45   2.0000      -5.754801      -156.5961
  46   2.0000      -5.750446      -156.4776
  47   2.0000      -5.746335      -156.3657
  48   2.0000      -1.034383       -28.1470
  49   2.0000      -1.032971       -28.1086
  50   2.0000      -1.030280       -28.0354
  51   2.0000      -0.944689       -25.7063
  52   2.0000      -0.942962       -25.6593
  53   2.0000      -0.938640       -25.5417
  54   2.0000      -0.937773       -25.5181
  55   2.0000      -0.883264       -24.0348
  56   2.0000      -0.882059       -24.0020
  57   2.0000      -0.873954       -23.7815
  58   2.0000      -0.873658       -23.7735
  59   2.0000      -0.817878       -22.2556
  60   2.0000      -0.756064       -20.5736
  61   2.0000      -0.754673       -20.5357
  62   2.0000      -0.744259       -20.2523
  63   2.0000      -0.742241       -20.1974
  64   2.0000      -0.740828       -20.1590
  65   2.0000      -0.736519       -20.0417
  66   2.0000      -0.726632       -19.7727
  67   2.0000      -0.716773       -19.5044
  68   2.0000      -0.691826       -18.8255
  69   2.0000      -0.684961       -18.6387
  70   2.0000      -0.676505       -18.4086
  71   2.0000      -0.672224       -18.2922
  72   2.0000      -0.647367       -17.6157
  73   2.0000      -0.634854       -17.2753
  74   2.0000      -0.626851       -17.0575
  75   2.0000      -0.615283       -16.7427
  76   2.0000      -0.609749       -16.5921
  77   2.0000      -0.600603       -16.3432
  78   2.0000      -0.574624       -15.6363
  79   2.0000      -0.571461       -15.5502
  80   2.0000      -0.563767       -15.3409
  81   2.0000      -0.552962       -15.0469
  82   2.0000      -0.543487       -14.7890
  83   2.0000      -0.533565       -14.5191
  84   2.0000      -0.530666       -14.4402
  85   2.0000      -0.529481       -14.4079
  86   2.0000      -0.521199       -14.1826
  87   2.0000      -0.511778       -13.9262
  88   2.0000      -0.508118       -13.8266
  89   2.0000      -0.503553       -13.7024
  90   2.0000      -0.500721       -13.6253
  91   2.0000      -0.485614       -13.2142
  92   2.0000      -0.479140       -13.0381
  93   2.0000      -0.464748       -12.6464
  94   2.0000      -0.454043       -12.3551
  95   2.0000      -0.445631       -12.1262
  96   2.0000      -0.445452       -12.1214
  97   2.0000      -0.440609       -11.9896
  98   2.0000      -0.440033       -11.9739
  99   2.0000      -0.439540       -11.9605
 100   2.0000      -0.438403       -11.9296
 101   2.0000      -0.434878       -11.8336
 102   2.0000      -0.431130       -11.7316
 103   2.0000      -0.424697       -11.5566
 104   2.0000      -0.418542       -11.3891
 105   2.0000      -0.417672       -11.3654
 106   2.0000      -0.414082       -11.2678
 107   2.0000      -0.410565       -11.1720
 108   2.0000      -0.407919       -11.1000
 109   2.0000      -0.403245       -10.9728
 110   2.0000      -0.400013       -10.8849
 111   2.0000      -0.398951       -10.8560
 112   2.0000      -0.385156       -10.4806
 113   2.0000      -0.384888       -10.4733
 114   2.0000      -0.381316       -10.3761
 115   2.0000      -0.378570       -10.3014
 116   2.0000      -0.378186       -10.2910
 117   2.0000      -0.374623       -10.1940
 118   2.0000      -0.371615       -10.1122
 119   2.0000      -0.370640       -10.0856
 120   2.0000      -0.369853       -10.0642
 121   2.0000      -0.368843       -10.0367
 122   2.0000      -0.357370        -9.7245
 123   2.0000      -0.356888        -9.7114
 124   2.0000      -0.356071        -9.6892
 125   2.0000      -0.351748        -9.5716
 126   2.0000      -0.348448        -9.4818
 127   2.0000      -0.347544        -9.4572
 128   2.0000      -0.347040        -9.4434
 129   2.0000      -0.345709        -9.4072
 130   2.0000      -0.345559        -9.4031
 131   2.0000      -0.342745        -9.3266
 132   2.0000      -0.338607        -9.2140
 133   2.0000      -0.337230        -9.1765
 134   2.0000      -0.335173        -9.1205
 135   2.0000      -0.330862        -9.0032
 136   2.0000      -0.321661        -8.7528
 137   2.0000      -0.313092        -8.5197
 138   2.0000      -0.306610        -8.3433
 139   2.0000      -0.301969        -8.2170
 140   2.0000      -0.293795        -7.9946
 141   2.0000      -0.275003        -7.4832
 142   2.0000      -0.272128        -7.4050
 143   2.0000      -0.267564        -7.2808
 144   2.0000      -0.267334        -7.2745
 145   2.0000      -0.238515        -6.4903
 146   2.0000      -0.232234        -6.3194
 147   2.0000      -0.228128        -6.2077
 148   2.0000      -0.227447        -6.1891
 149   2.0000      -0.225173        -6.1273
 150   2.0000      -0.218202        -5.9376
 151   2.0000      -0.218120        -5.9353
 152   2.0000      -0.216482        -5.8908
 153   2.0000      -0.214517        -5.8373
 154   2.0000      -0.197055        -5.3622
 155   2.0000      -0.173417        -4.7189
 156   2.0000      -0.163994        -4.4625
 157   0.0000      -0.123947        -3.3728
 158   0.0000      -0.111480        -3.0335
 159   0.0000      -0.084768        -2.3067
 160   0.0000      -0.060324        -1.6415
 161   0.0000      -0.046164        -1.2562

MULLIKEN ATOMIC CHARGES
-----------------------
   0 C :    0.127553
   1 C :   -0.038284
   2 C :   -0.037289
   3 C :    0.143364
   4 N :   -0.284102
   5 O :   -0.170542
   6 C :    0.105212
   7 C :    0.131093
   8 N :   -0.281710
   9 C :    0.052878
  10 H :    0.068673
  11 H :    0.053836
  12 H :    0.053793
  13 C :    0.052698
  14 H :    0.068446
  15 H :    0.052285
  16 H :    0.052330
  17 C :    0.128061
  18 C :   -0.091719
  19 C :   -0.069792
  20 H :    0.001390
  21 C :    0.206114
  22 H :    0.011925
  23 O :   -0.166000
  24 C :   -0.120210
  25 C :    0.014544
  26 C :    0.016808
  27 H :    0.036799
  28 C :   -0.122428
  29 H :    0.036763
  30 S :    0.132427
  31 C :    0.208047
  32 C :   -0.071105
  33 C :   -0.088510
  34 H :    0.012672
  35 C :    0.125584
  36 H :    0.002504
  37 O :   -0.166003
  38 C :    0.076136
  39 C :   -0.089217
  40 C :   -0.019700
  41 H :    0.000866
  42 C :    0.127787
  43 H :    0.019408
  44 O :   -0.150215
  45 H :    0.042400
  46 C :    0.115766
  47 C :   -0.055869
  48 C :   -0.018596
  49 C :    0.152159
  50 N :   -0.282732
  51 C :    0.052096
  52 H :    0.053075
  53 H :    0.052977
  54 H :    0.068839
  55 C :    0.150098
  56 C :    0.035664
  57 N :   -0.268532
  58 H :    0.030549
  59 O :   -0.170277
  60 O :   -0.171510
  61 C :    0.054516
  62 H :    0.068676
  63 H :    0.050638
  64 H :    0.051344
  65 O :   -0.164448
Sum of atomic charges:   -0.0000000

LOEWDIN ATOMIC CHARGES
----------------------
   0 C :    0.034648
   1 C :   -0.109866
   2 C :   -0.109718
   3 C :    0.064196
   4 N :    0.000699
   5 O :   -0.179152
   6 C :    0.030729
   7 C :    0.061113
   8 N :   -0.002888
   9 C :    0.007765
  10 H :    0.043393
  11 H :    0.030568
  12 H :    0.030560
  13 C :    0.007490
  14 H :    0.043645
  15 H :    0.030049
  16 H :    0.030062
  17 C :    0.019878
  18 C :   -0.054520
  19 C :   -0.067774
  20 H :    0.037445
  21 C :    0.028937
  22 H :    0.038862
  23 O :    0.042578
  24 C :   -0.187150
  25 C :   -0.031066
  26 C :   -0.029601
  27 H :    0.049560
  28 C :   -0.189380
  29 H :    0.049628
  30 S :    0.422428
  31 C :    0.031329
  32 C :   -0.069022
  33 C :   -0.051582
  34 H :    0.039066
  35 C :    0.017561
  36 H :    0.037881
  37 O :    0.043366
  38 C :    0.013757
  39 C :   -0.063481
  40 C :   -0.075643
  41 H :    0.035714
  42 C :    0.047988
  43 H :    0.040513
  44 O :    0.045964
  45 H :    0.035819
  46 C :    0.036958
  47 C :   -0.116459
  48 C :   -0.121396
  49 C :    0.064180
  50 N :   -0.005925
  51 C :    0.007902
  52 H :    0.030337
  53 H :    0.030324
  54 H :    0.044252
  55 C :    0.062096
  56 C :    0.061155
  57 N :    0.002100
  58 H :    0.036497
  59 O :   -0.177512
  60 O :   -0.172701
  61 C :    0.009623
  62 H :    0.042554
  63 H :    0.032417
  64 H :    0.032364
  65 O :   -0.171115

  Mayer bond orders larger than 0.100000
B(  0-C ,  1-C ) :   1.2736 B(  0-C ,  4-N ) :   1.2033 B(  0-C , 38-C ) :   1.1065
B(  1-C ,  2-C ) :   1.2670 B(  1-C ,  7-C ) :   1.0018 B(  2-C ,  3-C ) :   1.0189
B(  2-C ,  6-C ) :   1.2569 B(  3-C ,  4-N ) :   0.9688 B(  3-C ,  5-O ) :   2.0203
B(  4-N ,  9-C ) :   0.9891 B(  6-C ,  8-N ) :   1.2082 B(  6-C , 17-C ) :   1.1072
B(  7-C ,  8-N ) :   0.9523 B(  7-C , 65-O ) :   2.1114 B(  8-N , 13-C ) :   0.9899
B(  9-C , 10-H ) :   0.9333 B(  9-C , 11-H ) :   0.9590 B(  9-C , 12-H ) :   0.9590
B( 13-C , 14-H ) :   0.9348 B( 13-C , 15-H ) :   0.9596 B( 13-C , 16-H ) :   0.9596
B( 17-C , 18-C ) :   1.3528 B( 17-C , 21-C ) :   0.1290 B( 17-C , 23-O ) :   1.1564
B( 18-C , 19-C ) :   1.2412 B( 18-C , 20-H ) :   0.9984 B( 19-C , 21-C ) :   1.3793
B( 19-C , 22-H ) :   0.9862 B( 21-C , 23-O ) :   1.1734 B( 21-C , 24-C ) :   1.1508
B( 24-C , 25-C ) :   1.3987 B( 24-C , 28-C ) :   0.1083 B( 24-C , 30-S ) :   1.1080
B( 25-C , 26-C ) :   1.2543 B( 25-C , 27-H ) :   0.9691 B( 26-C , 28-C ) :   1.3986
B( 26-C , 29-H ) :   0.9691 B( 28-C , 30-S ) :   1.1066 B( 28-C , 31-C ) :   1.1511
B( 31-C , 32-C ) :   1.3777 B( 31-C , 35-C ) :   0.1288 B( 31-C , 37-O ) :   1.1759
B( 32-C , 33-C ) :   1.2431 B( 32-C , 34-H ) :   0.9863 B( 33-C , 35-C ) :   1.3557
B( 33-C , 36-H ) :   0.9977 B( 35-C , 37-O ) :   1.1537 B( 35-C , 46-C ) :   1.1107
B( 38-C , 39-C ) :   1.4022 B( 38-C , 42-C ) :   0.1061 B( 38-C , 44-O ) :   1.1861
B( 39-C , 40-C ) :   1.2312 B( 39-C , 41-H ) :   0.9992 B( 40-C , 42-C ) :   1.4689
B( 40-C , 43-H ) :   0.9847 B( 42-C , 44-O ) :   1.1629 B( 42-C , 45-H ) :   0.9923
B( 46-C , 47-C ) :   1.2883 B( 46-C , 50-N ) :   1.1975 B( 47-C , 48-C ) :   1.2503
B( 47-C , 55-C ) :   1.0268 B( 48-C , 49-C ) :   0.9913 B( 48-C , 56-C ) :   1.3765
B( 49-C , 50-N ) :   0.9516 B( 49-C , 60-O ) :   2.1129 B( 50-N , 51-C ) :   0.9900
B( 51-C , 52-H ) :   0.9599 B( 51-C , 53-H ) :   0.9598 B( 51-C , 54-H ) :   0.9360
B( 55-C , 57-N ) :   0.9693 B( 55-C , 59-O ) :   2.0156 B( 56-C , 57-N ) :   1.2186
B( 56-C , 58-H ) :   0.9738 B( 57-N , 61-C ) :   0.9799 B( 61-C , 62-H ) :   0.9462
B( 61-C , 63-H ) :   0.9670 B( 61-C , 64-H ) :   0.9670

Dispersion correction           -0.150351429
FINAL SINGLE POINT ENERGY     -2375.124489854789

DIPOLE MOMENT
-------------
                                X             Y             Z
Electronic contribution:     -0.83690     -10.50894       0.07941
Nuclear contribution   :      0.18961      10.33035      -0.07668
                        -----------------------------------------
Total Dipole Moment    :     -0.64729      -0.17859       0.00273
                        -----------------------------------------
Magnitude (a.u.)       :      0.67148
Magnitude (Debye)      :      1.70677

Rotational constants in cm-1:     0.004553     0.000829     0.000702
Rotational constants in MHz :   136.501160    24.861724    21.042755

                             ****ORCA TERMINATED NORMALLY****
TOTAL RUN TIME: 0 days 0 hours 47 minutes 19 seconds 180 msec
