                         Program Version 4.2.0 -  RELEASE  -
|  1> ! RI BP86 def2-SVP def2/J D3BJ TIGHTSCF  Opt Grid3 FinalGrid5
|  2> %maxcore 3000
|  3> %geom
|  4> Constraints
|  5> {D 1 5 58 64 0.0 C}
|  6> {D 6 5 58 59 0.0 C}
|  7> {D 2 3 18 19 0.0 C}
|  8> {D 4 3 18 24 0.0 C}
|  9> {D 20 22 25 31 0.0 C}
| 10> {D 24 22 25 26 0.0 C}
| 11> {D 27 29 32 38 0.0 C}
| 12> {D 31 29 32 33 0.0 C}
| 13> {D 34 36 39 41 0.0 C}
| 14> {D 38 36 39 40 0.0 C}
| 15> end
| 16> end
| 17>
| 18> *xyz 0 1
| 19> C	-5.714796	-0.222522	0.261672
| 20> C	-4.625566	-1.183882	0.054932
| 21> N	-5.044196	1.015408	0.265572
| 22> C	-3.656806	0.866868	0.097252
| 23> C	-3.386006	-0.442182	-0.034208
| 24> C	-4.375226	-2.489062	-0.074158
| 25> N	-3.005836	-2.669922	-0.245908
| 26> C	-2.312996	-1.444432	-0.246938
| 27> O	-6.897436	-0.456242	0.401652
| 28> O	-1.124016	-1.254642	-0.399478
| 29> C	-5.789156	2.237058	0.421462
| 30> H	-6.829226	2.025758	0.688832
| 31> H	-5.799246	2.772208	-0.532278
| 32> H	-5.348666	2.848818	1.212322
| 33> C	-2.329056	-3.929372	-0.432468
| 34> H	-2.856646	-4.534712	-1.174618
| 35> H	-2.287046	-4.455382	0.525622
| 36> H	-1.304056	-3.766202	-0.777608
| 37> C	-2.709206	1.945198	0.067612
| 38> C	-2.888946	3.289668	-0.232308
| 39> C	-1.695926	4.072878	-0.174168
| 40> H	-3.835596	3.728518	-0.511708
| 41> C	-0.579706	3.323778	0.131302
| 42> H	-1.670196	5.132968	-0.395868
| 43> S	-1.042396	1.711268	0.476892
| 44> C	0.804744	3.759228	0.175742
| 45> C	1.943434	2.974998	0.179012
| 46> C	3.149264	3.741728	0.180152
| 47> H	1.929774	1.891148	0.156762
| 48> C	2.924534	5.106818	0.179092
| 49> H	4.135924	3.292698	0.159992
| 50> S	1.235454	5.424208	0.193702
| 51> C	3.909544	6.173818	0.142122
| 52> C	3.714114	7.512838	-0.122388
| 53> C	4.938864	8.250108	-0.187108
| 54> H	2.743654	7.955608	-0.311778
| 55> C	6.076644	7.500268	0.085222
| 56> H	4.949754	9.299298	-0.445428
| 57> S	5.567364	5.884468	0.446302
| 58> C	7.465054	7.873598	0.108992
| 59> C	8.516824	7.031738	0.071622
| 60> N	7.955644	9.195338	0.175382
| 61> C	9.361974	9.240268	0.153252
| 62> C	9.723154	7.828028	0.105962
| 63> C	10.792994	7.040308	0.090052
| 64> C	8.971274	5.612128	0.008502
| 65> N	10.376064	5.724788	0.042722
| 66> H	11.835964	7.320438	0.112172
| 67> C	7.213144	10.424908	0.238702
| 68> H	6.364424	10.333868	0.918722
| 69> H	6.887814	10.694258	-0.770468
| 70> H	7.851094	11.232458	0.613652
| 71> C	11.272744	4.596968	0.035832
| 72> H	10.712014	3.658458	0.029122
| 73> H	11.899064	4.633598	0.932322
| 74> H	11.904284	4.646928	-0.855658
| 75> O	10.124354	10.185538	0.167462
| 76> O	8.303264	4.601688	-0.058608
| 77> C	-5.334896	-3.536822	-0.049388
| 78> C	-5.298336	-4.746712	0.630492
| 79> C	-6.441106	-5.566812	0.397222
| 80> H	-4.483596	-5.037122	1.282362
| 81> C	-7.337826	-4.962572	-0.450098
| 82> H	-6.600776	-6.543662	0.837442
| 83> S	-6.777816	-3.446552	-0.995708
| 84> H	-8.293826	-5.341902	-0.784848
| 85> **                         ****END OF INPUT****
 Total Charge           Charge          ....    0
 Multiplicity           Mult            ....    1
 Number of Electrons    NEL             ....  338
Dispersion correction           -0.171802970
FINAL SINGLE POINT ENERGY     -3343.782033693834
Dispersion correction            ... done
Dispersion correction           -0.171768276
FINAL SINGLE POINT ENERGY     -3343.860237346319
Dispersion correction            ... done
Dispersion correction           -0.171949154
FINAL SINGLE POINT ENERGY     -3343.921483966392
Dispersion correction            ... done
FINAL SINGLE POINT ENERGY     -3343.964254932029
FINAL SINGLE POINT ENERGY     -3343.983661707445
FINAL SINGLE POINT ENERGY     -3343.987702979353
FINAL SINGLE POINT ENERGY     -3343.988791115599
FINAL SINGLE POINT ENERGY     -3343.989538123760
FINAL SINGLE POINT ENERGY     -3343.990068081334
FINAL SINGLE POINT ENERGY     -3343.990380253309
FINAL SINGLE POINT ENERGY     -3343.990448541138
FINAL SINGLE POINT ENERGY     -3343.990585653308
FINAL SINGLE POINT ENERGY     -3343.990621484847
FINAL SINGLE POINT ENERGY     -3343.990625698263
FINAL SINGLE POINT ENERGY     -3343.990659201295
FINAL SINGLE POINT ENERGY     -3343.990670833082
Dispersion correction            ... done
Dispersion correction           -0.172450808
FINAL SINGLE POINT ENERGY     -3343.990675166488
Dispersion correction            ... done
Dispersion correction           -0.172449506
FINAL SINGLE POINT ENERGY     -3343.990676578377
Dispersion correction            ... done
                    ***********************HURRAY********************

CARTESIAN COORDINATES (ANGSTROEM)
---------------------------------
  C     -5.735663   -0.190039    0.033493
  C     -4.643800   -1.147951    0.023570
  N     -5.064111    1.097294    0.041743
  C     -3.674514    0.953520    0.037611
  C     -3.411537   -0.433434    0.026264
  C     -4.379576   -2.533706    0.012451
  N     -2.991486   -2.677541    0.008177
  C     -2.320316   -1.389345    0.016406
  O     -6.960762   -0.299985    0.035535
  O     -1.094257   -1.278625    0.014359
  C     -5.857569    2.305398    0.053421
  H     -6.913986    1.972001    0.053489
  H     -5.677344    2.927249   -0.847595
  H     -5.672646    2.912573    0.963428
  C     -2.196303   -3.884957   -0.004024
  H     -2.382043   -4.492035   -0.913685
  H     -2.376006   -4.506689    0.896931
  H     -1.140316   -3.550494   -0.004804
  C     -2.729908    2.033772    0.043971
  C     -2.930355    3.428436    0.055263
  C     -1.735069    4.171844    0.059507
  H     -3.918416    3.897242    0.060756
  C     -0.583382    3.370856    0.051547
  H     -1.698148    5.270295    0.068616
  S     -0.998678    1.668928    0.037404
  C      0.794813    3.780800    0.053855
  C      1.949381    2.985660    0.046088
  C      3.147494    3.731887    0.051667
  H      1.908163    1.887341    0.036638
  C      2.943124    5.118431    0.063613
  H      4.151408    3.284467    0.047049
  S      1.223921    5.485334    0.068208
  C      3.918627    6.175105    0.071927
  C      3.705771    7.562004    0.084079
  C      4.899826    8.307615    0.089176
  H      2.703197    8.012082    0.088792
  C      6.062810    7.513617    0.080978
  H      4.914258    9.401269    0.098451
  S      5.628645    5.798816    0.067530
  C      7.451287    7.882291    0.082374
  C      8.571797    7.027711    0.074129
  N      7.933166    9.193925    0.092913
  C      9.390551    9.233398    0.091951
  C      9.764094    7.824276    0.079727
  C     10.858328    6.970678    0.070128
  C      8.948430    5.623550    0.060629
  N     10.404579    5.671555    0.058972
  H     11.932111    7.198175    0.070692
  C      7.197216   10.437477    0.104356
  H      6.567174   10.538306    1.012266
  H      6.563610   10.552660   -0.799316
  H      7.961952   11.239103    0.109353
  C     11.203810    4.464800    0.046047
  H     10.493493    3.615266    0.047803
  H     11.852283    4.396449    0.943950
  H     11.836570    4.404745   -0.863704
  O     10.025638   10.280115    0.100161
  O      8.317146    4.565759    0.051942
  C     -5.323236   -3.622293    0.006369
  C     -5.117096   -5.012098   -0.004632
  C     -6.322750   -5.760054   -0.007190
  H     -4.128421   -5.479646   -0.010331
  C     -7.447842   -4.949652    0.001557
  H     -6.363188   -6.857878   -0.015086
  S     -7.056704   -3.267946    0.013051
  H     -8.501161   -5.257489    0.002027

 Multiplicity           Mult            ....    1
 Number of Electrons    NEL             ....  338
 Basis Dimension        Dim             ....  742

ORBITAL ENERGIES
----------------

  NO   OCC          E(Eh)            E(eV)
   0   2.0000     -88.133624     -2398.2378
   1   2.0000     -88.129492     -2398.1254
   2   2.0000     -88.128677     -2398.1032
   3   2.0000     -88.127503     -2398.0713
   4   2.0000     -18.760539      -510.5002
   5   2.0000     -18.759021      -510.4589
   6   2.0000     -18.758997      -510.4583
   7   2.0000     -18.758207      -510.4368
   8   2.0000     -14.069147      -382.8410
   9   2.0000     -14.068895      -382.8341
  10   2.0000     -14.068270      -382.8171
  11   2.0000     -14.067170      -382.7871
  12   2.0000     -10.013059      -272.4692
  13   2.0000     -10.012648      -272.4580
  14   2.0000     -10.012175      -272.4451
  15   2.0000     -10.010836      -272.4087
  16   2.0000      -9.991225      -271.8750
  17   2.0000      -9.989495      -271.8280
  18   2.0000      -9.988937      -271.8128
  19   2.0000      -9.974074      -271.4084
  20   2.0000      -9.969909      -271.2950
  21   2.0000      -9.969659      -271.2882
  22   2.0000      -9.969435      -271.2821
  23   2.0000      -9.969329      -271.2792
  24   2.0000      -9.969303      -271.2785
  25   2.0000      -9.968228      -271.2493
  26   2.0000      -9.966019      -271.1892
  27   2.0000      -9.959626      -271.0152
  28   2.0000      -9.958984      -270.9977
  29   2.0000      -9.958950      -270.9968
  30   2.0000      -9.958679      -270.9894
  31   2.0000      -9.952357      -270.8174
  32   2.0000      -9.943740      -270.5829
  33   2.0000      -9.942508      -270.5494
  34   2.0000      -9.939816      -270.4761
  35   2.0000      -9.939785      -270.4753
  36   2.0000      -9.939494      -270.4674
  37   2.0000      -9.939463      -270.4665
  38   2.0000      -9.938313      -270.4352
  39   2.0000      -9.934598      -270.3341
  40   2.0000      -9.917902      -269.8798
  41   2.0000      -9.917482      -269.8684
  42   2.0000      -9.915891      -269.8251
  43   2.0000      -9.915799      -269.8226
  44   2.0000      -7.729794      -210.3384
  45   2.0000      -7.724963      -210.2069
  46   2.0000      -7.724133      -210.1843
  47   2.0000      -7.723202      -210.1590
  48   2.0000      -5.756995      -156.6558
  49   2.0000      -5.752695      -156.5388
  50   2.0000      -5.752241      -156.5264
  51   2.0000      -5.751432      -156.5044
  52   2.0000      -5.750313      -156.4740
  53   2.0000      -5.748607      -156.4276
  54   2.0000      -5.747734      -156.4038
  55   2.0000      -5.746920      -156.3816
  56   2.0000      -5.745568      -156.3449
  57   2.0000      -5.743919      -156.3000
  58   2.0000      -5.743056      -156.2765
  59   2.0000      -5.742767      -156.2686
  60   2.0000      -0.949078       -25.8257
  61   2.0000      -0.947729       -25.7890
  62   2.0000      -0.943699       -25.6794
  63   2.0000      -0.942302       -25.6413
  64   2.0000      -0.886417       -24.1206
  65   2.0000      -0.885340       -24.0913
  66   2.0000      -0.878449       -23.9038
  67   2.0000      -0.876821       -23.8595
  68   2.0000      -0.833786       -22.6885
  69   2.0000      -0.820397       -22.3241
  70   2.0000      -0.813011       -22.1232
  71   2.0000      -0.805879       -21.9291
  72   2.0000      -0.758729       -20.6461
  73   2.0000      -0.756346       -20.5812
  74   2.0000      -0.729422       -19.8486
  75   2.0000      -0.712954       -19.4005
  76   2.0000      -0.703434       -19.1414
  77   2.0000      -0.693268       -18.8648
  78   2.0000      -0.690323       -18.7846
  79   2.0000      -0.685791       -18.6613
  80   2.0000      -0.682457       -18.5706
  81   2.0000      -0.678495       -18.4628
  82   2.0000      -0.677074       -18.4241
  83   2.0000      -0.664455       -18.0807
  84   2.0000      -0.644153       -17.5283
  85   2.0000      -0.631209       -17.1761
  86   2.0000      -0.622397       -16.9363
  87   2.0000      -0.616923       -16.7873
  88   2.0000      -0.609088       -16.5741
  89   2.0000      -0.601796       -16.3757
  90   2.0000      -0.567485       -15.4421
  91   2.0000      -0.551005       -14.9936
  92   2.0000      -0.541003       -14.7214
  93   2.0000      -0.537960       -14.6386
  94   2.0000      -0.534876       -14.5547
  95   2.0000      -0.531990       -14.4762
  96   2.0000      -0.526893       -14.3375
  97   2.0000      -0.522531       -14.2188
  98   2.0000      -0.515785       -14.0352
  99   2.0000      -0.504868       -13.7381
 100   2.0000      -0.490763       -13.3543
 101   2.0000      -0.488772       -13.3002
 102   2.0000      -0.487528       -13.2663
 103   2.0000      -0.479741       -13.0544
 104   2.0000      -0.470556       -12.8045
 105   2.0000      -0.461685       -12.5631
 106   2.0000      -0.450650       -12.2628
 107   2.0000      -0.448754       -12.2112
 108   2.0000      -0.440939       -11.9986
 109   2.0000      -0.440010       -11.9733
 110   2.0000      -0.437923       -11.9165
 111   2.0000      -0.435546       -11.8518
 112   2.0000      -0.425552       -11.5798
 113   2.0000      -0.423907       -11.5351
 114   2.0000      -0.421961       -11.4821
 115   2.0000      -0.417658       -11.3650
 116   2.0000      -0.411755       -11.2044
 117   2.0000      -0.407526       -11.0894
 118   2.0000      -0.395258       -10.7555
 119   2.0000      -0.391690       -10.6584
 120   2.0000      -0.387012       -10.5311
 121   2.0000      -0.385413       -10.4876
 122   2.0000      -0.383431       -10.4337
 123   2.0000      -0.382540       -10.4094
 124   2.0000      -0.378520       -10.3000
 125   2.0000      -0.377070       -10.2606
 126   2.0000      -0.374780       -10.1983
 127   2.0000      -0.374542       -10.1918
 128   2.0000      -0.373489       -10.1632
 129   2.0000      -0.371066       -10.0972
 130   2.0000      -0.369033       -10.0419
 131   2.0000      -0.368130       -10.0173
 132   2.0000      -0.364624        -9.9219
 133   2.0000      -0.364292        -9.9129
 134   2.0000      -0.362266        -9.8577
 135   2.0000      -0.359143        -9.7728
 136   2.0000      -0.354202        -9.6383
 137   2.0000      -0.350737        -9.5441
 138   2.0000      -0.350159        -9.5283
 139   2.0000      -0.349409        -9.5079
 140   2.0000      -0.347777        -9.4635
 141   2.0000      -0.347623        -9.4593
 142   2.0000      -0.342860        -9.3297
 143   2.0000      -0.337240        -9.1768
 144   2.0000      -0.333509        -9.0752
 145   2.0000      -0.326862        -8.8944
 146   2.0000      -0.316376        -8.6090
 147   2.0000      -0.315162        -8.5760
 148   2.0000      -0.314150        -8.5485
 149   2.0000      -0.311553        -8.4778
 150   2.0000      -0.304805        -8.2942
 151   2.0000      -0.302625        -8.2349
 152   2.0000      -0.296888        -8.0787
 153   2.0000      -0.271390        -7.3849
 154   2.0000      -0.249924        -6.8008
 155   2.0000      -0.243560        -6.6276
 156   2.0000      -0.241791        -6.5795
 157   2.0000      -0.240659        -6.5487
 158   2.0000      -0.235354        -6.4043
 159   2.0000      -0.231653        -6.3036
 160   2.0000      -0.231193        -6.2911
 161   2.0000      -0.230404        -6.2696
 162   2.0000      -0.222422        -6.0524
 163   2.0000      -0.221290        -6.0216
 164   2.0000      -0.220928        -6.0118
 165   2.0000      -0.219702        -5.9784
 166   2.0000      -0.200851        -5.4654
 167   2.0000      -0.177182        -4.8214
 168   2.0000      -0.168404        -4.5825
 169   0.0000      -0.130116        -3.5406
 170   0.0000      -0.116587        -3.1725
 171   0.0000      -0.091641        -2.4937
 172   0.0000      -0.071090        -1.9345
 173   0.0000      -0.053217        -1.4481

MULLIKEN ATOMIC CHARGES
-----------------------
   0 C :    0.130603
   1 C :   -0.086426
   2 N :   -0.286876
   3 C :    0.188327
   4 C :   -0.081394
   5 C :    0.194191
   6 N :   -0.286093
   7 C :    0.129252
   8 O :   -0.182312
   9 O :   -0.184743
  10 C :    0.054362
  11 H :    0.068624
  12 H :    0.057272
  13 H :    0.057174
  14 C :    0.054468
  15 H :    0.058157
  16 H :    0.058252
  17 H :    0.068129
  18 C :   -0.131468
  19 C :   -0.013440
  20 C :   -0.024493
  21 H :   -0.010481
  22 C :   -0.034419
  23 H :    0.009799
  24 S :    0.179711
  25 C :   -0.050530
  26 C :   -0.013789
  27 C :   -0.010503
  28 H :    0.028545
  29 C :   -0.052379
  30 H :    0.028064
  31 S :    0.118315
  32 C :   -0.034790
  33 C :   -0.022400
  34 C :   -0.013966
  35 H :    0.009450
  36 C :   -0.133574
  37 H :   -0.008716
  38 S :    0.182136
  39 C :    0.207696
  40 C :   -0.119484
  41 N :   -0.293725
  42 C :    0.148613
  43 C :   -0.005457
  44 C :    0.032686
  45 C :    0.138763
  46 N :   -0.260895
  47 H :    0.032203
  48 C :    0.053858
  49 H :    0.056491
  50 H :    0.056425
  51 H :    0.067882
  52 C :    0.053358
  53 H :    0.069296
  54 H :    0.052668
  55 H :    0.052891
  56 O :   -0.169936
  57 O :   -0.185187
  58 C :   -0.177595
  59 C :   -0.009427
  60 C :    0.019370
  61 H :   -0.006839
  62 C :   -0.084214
  63 H :    0.014456
  64 S :    0.186673
  65 H :    0.057394
Sum of atomic charges:    0.0000000

LOEWDIN ATOMIC CHARGES
----------------------
   0 C :    0.054605
   1 C :   -0.119530
   2 N :   -0.001988
   3 C :    0.035212
   4 C :   -0.118130
   5 C :    0.040412
   6 N :    0.000431
   7 C :    0.054123
   8 O :   -0.183055
   9 O :   -0.183954
  10 C :    0.007522
  11 H :    0.043611
  12 H :    0.031318
  13 H :    0.031311
  14 C :    0.008084
  15 H :    0.031937
  16 H :    0.031941
  17 H :    0.043263
  18 C :   -0.175666
  19 C :   -0.053506
  20 C :   -0.065291
  21 H :    0.036001
  22 C :   -0.180572
  23 H :    0.034555
  24 S :    0.483333
  25 C :   -0.179912
  26 C :   -0.054035
  27 C :   -0.052297
  28 H :    0.042476
  29 C :   -0.181772
  30 H :    0.042568
  31 S :    0.429065
  32 C :   -0.178408
  33 C :   -0.066207
  34 C :   -0.050761
  35 H :    0.034561
  36 C :   -0.177990
  37 H :    0.036621
  38 S :    0.486532
  39 C :    0.042871
  40 C :   -0.127685
  41 N :   -0.008659
  42 C :    0.065510
  43 C :   -0.119118
  44 C :    0.062020
  45 C :    0.049453
  46 N :    0.004020
  47 H :    0.037227
  48 C :    0.006736
  49 H :    0.030912
  50 H :    0.030891
  51 H :    0.043496
  52 C :    0.010477
  53 H :    0.043233
  54 H :    0.033244
  55 H :    0.033233
  56 O :   -0.169417
  57 O :   -0.185350
  58 C :   -0.183468
  59 C :   -0.060248
  60 C :   -0.069856
  61 H :    0.034310
  62 C :   -0.184901
  63 H :    0.038575
  64 S :    0.490382
  65 H :    0.035705

  Mayer bond orders larger than 0.100000
B(  0-C ,  1-C ) :   1.0192 B(  0-C ,  2-N ) :   0.9785 B(  0-C ,  8-O ) :   2.0525
B(  1-C ,  4-C ) :   1.2893 B(  1-C ,  5-C ) :   1.2699 B(  2-N ,  3-C ) :   1.1832
B(  2-N , 10-C ) :   0.9892 B(  3-C ,  4-C ) :   1.2617 B(  3-C , 18-C ) :   1.2117
B(  4-C ,  7-C ) :   1.0232 B(  5-C ,  6-N ) :   1.1898 B(  5-C , 58-C ) :   1.2057
B(  6-N ,  7-C ) :   0.9784 B(  6-N , 14-C ) :   0.9881 B(  7-C ,  9-O ) :   2.0418
B( 10-C , 11-H ) :   0.9299 B( 10-C , 12-H ) :   0.9574 B( 10-C , 13-H ) :   0.9575
B( 14-C , 15-H ) :   0.9576 B( 14-C , 16-H ) :   0.9576 B( 14-C , 17-H ) :   0.9302
B( 18-C , 19-C ) :   1.3485 B( 18-C , 22-C ) :   0.1029 B( 18-C , 24-S ) :   1.1223
B( 19-C , 20-C ) :   1.3085 B( 19-C , 21-H ) :   0.9811 B( 20-C , 22-C ) :   1.3830
B( 20-C , 23-H ) :   0.9740 B( 22-C , 24-S ) :   1.1079 B( 22-C , 25-C ) :   1.2078
B( 25-C , 26-C ) :   1.4091 B( 25-C , 31-S ) :   1.1116 B( 26-C , 27-C ) :   1.3096
B( 26-C , 28-H ) :   0.9730 B( 27-C , 29-C ) :   1.4112 B( 27-C , 30-H ) :   0.9730
B( 29-C , 31-S ) :   1.1095 B( 29-C , 32-C ) :   1.2066 B( 32-C , 33-C ) :   1.3826
B( 32-C , 36-C ) :   0.1036 B( 32-C , 38-S ) :   1.1124 B( 33-C , 34-C ) :   1.3078
B( 33-C , 35-H ) :   0.9742 B( 34-C , 36-C ) :   1.3524 B( 34-C , 37-H ) :   0.9806
B( 36-C , 38-S ) :   1.1219 B( 36-C , 39-C ) :   1.2098 B( 39-C , 40-C ) :   1.2910
B( 39-C , 41-N ) :   1.1794 B( 40-C , 43-C ) :   1.2598 B( 40-C , 45-C ) :   1.0346
B( 41-N , 42-C ) :   0.9556 B( 41-N , 48-C ) :   0.9901 B( 42-C , 43-C ) :   0.9901
B( 42-C , 56-O ) :   2.1096 B( 43-C , 44-C ) :   1.3754 B( 44-C , 46-N ) :   1.2170
B( 44-C , 47-H ) :   0.9743 B( 45-C , 46-N ) :   0.9788 B( 45-C , 57-O ) :   2.0364
B( 46-N , 52-C ) :   0.9789 B( 48-C , 49-H ) :   0.9572 B( 48-C , 50-H ) :   0.9572
B( 48-C , 51-H ) :   0.9301 B( 52-C , 53-H ) :   0.9471 B( 52-C , 54-H ) :   0.9668
B( 52-C , 55-H ) :   0.9668 B( 58-C , 59-C ) :   1.3820 B( 58-C , 62-C ) :   0.1048
B( 58-C , 64-S ) :   1.1497 B( 59-C , 60-C ) :   1.2849 B( 59-C , 61-H ) :   0.9806
B( 60-C , 62-C ) :   1.4785 B( 60-C , 63-H ) :   0.9789 B( 62-C , 64-S ) :   1.1780
B( 62-C , 65-H ) :   0.9608

Dispersion correction           -0.172449146
FINAL SINGLE POINT ENERGY     -3343.990677026712

DIPOLE MOMENT
-------------
                                X             Y             Z
Electronic contribution:     -7.67151       0.88189       0.01602
Nuclear contribution   :      7.09663      -1.45812      -0.02012
                        -----------------------------------------
Total Dipole Moment    :     -0.57488      -0.57624      -0.00410
                        -----------------------------------------
Magnitude (a.u.)       :      0.81397
Magnitude (Debye)      :      2.06896

Rotational constants in cm-1:     0.006696     0.000511     0.000475
Rotational constants in MHz :   200.753636    15.327031    14.245161

                             ****ORCA TERMINATED NORMALLY****
TOTAL RUN TIME: 0 days 1 hours 50 minutes 41 seconds 858 msec
