                         Program Version 4.2.0 -  RELEASE  -
|  1> ! RI BP86 def2-SVP def2/J D3BJ TIGHTSCF  Opt Grid3 FinalGrid5
|  2> %maxcore 3000
|  3> %geom
|  4> optimizehydrogens true
|  5> end
|  6>
|  7>
|  8> *xyz 0 1
|  9> C	0.485178	0.687542	-0.006209
| 10> C	0.090923	2.030316	-0.052070
| 11> C	1.282099	2.802273	-0.059749
| 12> H	-0.511969	2.270002	0.831245
| 13> C	2.351118	1.896523	-0.019008
| 14> H	1.317465	3.456101	0.819325
| 15> O	1.844907	0.620910	0.013285
| 16> H	-0.489041	2.215796	-0.963340
| 17> H	1.340514	3.401841	-0.975510
| 18> H	0.166960	0.167253	0.902123
| 19> H	2.964609	1.975784	0.882921
| 20> H	0.189990	0.113143	-0.889362
| 21> H	2.987822	1.921669	-0.907887
| 22> **                         ****END OF INPUT****
 Total Charge           Charge          ....    0
 Multiplicity           Mult            ....    1
 Number of Electrons    NEL             ....   40
Dispersion correction           -0.013858315
FINAL SINGLE POINT ENERGY      -232.231112082776
Dispersion correction            ... done
Dispersion correction           -0.013770513
FINAL SINGLE POINT ENERGY      -232.237840506149
Dispersion correction            ... done
Dispersion correction           -0.013706408
FINAL SINGLE POINT ENERGY      -232.240213042839
Dispersion correction            ... done
Dispersion correction           -0.013693758
FINAL SINGLE POINT ENERGY      -232.240396722321
Dispersion correction            ... done
Dispersion correction           -0.013691552
FINAL SINGLE POINT ENERGY      -232.240424200303
Dispersion correction            ... done
                    ***********************HURRAY********************

CARTESIAN COORDINATES (ANGSTROEM)
---------------------------------
  C      0.500333    0.665272   -0.005287
  C      0.105599    2.007903   -0.051209
  C      1.296499    2.780286   -0.058878
  H     -0.555736    2.273592    0.802215
  C      2.365841    1.874920   -0.018070
  H      1.332185    3.497079    0.790496
  O      1.860085    0.599127    0.014253
  H     -0.532745    2.220798   -0.936360
  H      1.354463    3.445227   -0.948264
  H      0.087808    0.122186    0.886269
  H      3.036940    2.028637    0.867121
  H      0.110472    0.068722   -0.872545
  H      3.058830    1.975404   -0.893975

 Multiplicity           Mult            ....    1
 Number of Electrons    NEL             ....   40
 Basis Dimension        Dim             ....  110

ORBITAL ENERGIES
----------------

  NO   OCC          E(Eh)            E(eV)
   0   2.0000     -18.764985      -510.6212
   1   2.0000      -9.941661      -270.5264
   2   2.0000      -9.940334      -270.4902
   3   2.0000      -9.901781      -269.4412
   4   2.0000      -9.901232      -269.4262
   5   2.0000      -0.973488       -26.4899
   6   2.0000      -0.740741       -20.1566
   7   2.0000      -0.684837       -18.6354
   8   2.0000      -0.540958       -14.7202
   9   2.0000      -0.529449       -14.4070
  10   2.0000      -0.468696       -12.7539
  11   2.0000      -0.467079       -12.7099
  12   2.0000      -0.386383       -10.5140
  13   2.0000      -0.378849       -10.3090
  14   2.0000      -0.357661        -9.7325
  15   2.0000      -0.337210        -9.1759
  16   2.0000      -0.325360        -8.8535
  17   2.0000      -0.279605        -7.6084
  18   2.0000      -0.255581        -6.9547
  19   2.0000      -0.189593        -5.1591
  20   0.0000       0.021118         0.5747
  21   0.0000       0.027977         0.7613
  22   0.0000       0.074281         2.0213
  23   0.0000       0.088507         2.4084
  24   0.0000       0.094722         2.5775

MULLIKEN ATOMIC CHARGES
-----------------------
   0 C :    0.176526
   1 C :   -0.049392
   2 C :   -0.053359
   3 H :    0.019640
   4 C :    0.176187
   5 H :    0.020213
   6 O :   -0.321851
   7 H :    0.019688
   8 H :    0.020181
   9 H :   -0.003375
  10 H :   -0.000570
  11 H :   -0.003417
  12 H :   -0.000472
Sum of atomic charges:    0.0000000

LOEWDIN ATOMIC CHARGES
----------------------
   0 C :    0.034622
   1 C :   -0.069528
   2 C :   -0.069969
   3 H :    0.036542
   4 C :    0.039944
   5 H :    0.036739
   6 O :   -0.118062
   7 H :    0.036552
   8 H :    0.036748
   9 H :    0.008436
  10 H :    0.009763
  11 H :    0.008427
  12 H :    0.009785

  Mayer bond orders larger than 0.100000
B(  0-C ,  1-C ) :   1.1680 B(  0-C ,  6-O ) :   1.0544 B(  0-C ,  9-H ) :   0.9225
B(  0-C , 11-H ) :   0.9225 B(  1-C ,  2-C ) :   1.1906 B(  1-C ,  3-H ) :   0.9056
B(  1-C ,  7-H ) :   0.9056 B(  2-C ,  4-C ) :   1.1703 B(  2-C ,  5-H ) :   0.9053
B(  2-C ,  8-H ) :   0.9053 B(  4-C ,  6-O ) :   1.0451 B(  4-C , 10-H ) :   0.9239
B(  4-C , 12-H ) :   0.9238

Dispersion correction           -0.013691306
FINAL SINGLE POINT ENERGY      -232.240428028699

DIPOLE MOMENT
-------------
                                X             Y             Z
Electronic contribution:      1.48183      -2.25605       0.08768
Nuclear contribution   :     -1.84824       2.85119      -0.11053
                        -----------------------------------------
Total Dipole Moment    :     -0.36641       0.59514      -0.02285
                        -----------------------------------------
Magnitude (a.u.)       :      0.69926
Magnitude (Debye)      :      1.77737

Rotational constants in cm-1:     0.259733     0.257369     0.142799
Rotational constants in MHz :  7786.604750  7715.736433  4281.008286

                             ****ORCA TERMINATED NORMALLY****
TOTAL RUN TIME: 0 days 0 hours 0 minutes 55 seconds 435 msec
