                         Program Version 4.2.0 -  RELEASE  -
|  1> ! RI BP86 def2-SVP def2/J D3BJ TIGHTSCF  Opt Grid3 FinalGrid5
|  2> %maxcore 3000
|  3> %geom
|  4> optimizehydrogens true
|  5> end
|  6>
|  7>
|  8> *xyz 0 1
|  9> C	1.708084	2.282830	-0.030539
| 10> C	1.311959	3.625057	-0.076277
| 11> C	2.502059	4.398672	-0.083919
| 12> H	0.281247	3.994749	-0.100881
| 13> C	3.572339	3.494408	-0.043282
| 14> H	2.568076	5.489442	-0.116021
| 15> O	3.067905	2.218089	-0.011085
| 16> H	1.202849	1.328563	-0.007863
| 17> H	4.651549	3.533721	-0.030665
| 18> **                         ****END OF INPUT****
 Total Charge           Charge          ....    0
 Multiplicity           Mult            ....    1
 Number of Electrons    NEL             ....   36
Dispersion correction           -0.009798668
FINAL SINGLE POINT ENERGY      -229.869089097505
Dispersion correction            ... done
Dispersion correction           -0.009788868
FINAL SINGLE POINT ENERGY      -229.869521445979
Dispersion correction            ... done
Dispersion correction           -0.009787605
FINAL SINGLE POINT ENERGY      -229.869618864121
Dispersion correction            ... done
Dispersion correction           -0.009788157
FINAL SINGLE POINT ENERGY      -229.869672279506
Dispersion correction            ... done
Dispersion correction           -0.009788718
FINAL SINGLE POINT ENERGY      -229.869674299681
Dispersion correction            ... done
                    ***********************HURRAY********************

CARTESIAN COORDINATES (ANGSTROEM)
---------------------------------
  C      1.707044    2.277689   -0.030289
  C      1.312789    3.620463   -0.076150
  C      2.503965    4.392420   -0.083829
  H      0.281666    3.991090   -0.100519
  C      3.572984    3.486670   -0.043088
  H      2.585716    5.485035   -0.115810
  O      3.066773    2.211057   -0.010795
  H      1.172324    1.323424   -0.008340
  H      4.662808    3.577684   -0.031712

 Multiplicity           Mult            ....    1
 Number of Electrons    NEL             ....   36
 Basis Dimension        Dim             ....   90

ORBITAL ENERGIES
----------------

  NO   OCC          E(Eh)            E(eV)
   0   2.0000     -18.847784      -512.8743
   1   2.0000      -9.963671      -271.1253
   2   2.0000      -9.963374      -271.1172
   3   2.0000      -9.918252      -269.8894
   4   2.0000      -9.917349      -269.8648
   5   2.0000      -1.011071       -27.5126
   6   2.0000      -0.714470       -19.4417
   7   2.0000      -0.669496       -18.2179
   8   2.0000      -0.535203       -14.5636
   9   2.0000      -0.507931       -13.8215
  10   2.0000      -0.482588       -13.1319
  11   2.0000      -0.402509       -10.9528
  12   2.0000      -0.401212       -10.9175
  13   2.0000      -0.358848        -9.7648
  14   2.0000      -0.358313        -9.7502
  15   2.0000      -0.321402        -8.7458
  16   2.0000      -0.250499        -6.8164
  17   2.0000      -0.202516        -5.5107
  18   0.0000      -0.031049        -0.8449
  19   0.0000       0.023639         0.6432
  20   0.0000       0.059751         1.6259
  21   0.0000       0.085260         2.3200
  22   0.0000       0.093258         2.5377

MULLIKEN ATOMIC CHARGES
-----------------------
   0 C :    0.085858
   1 C :   -0.046212
   2 C :   -0.044985
   3 H :    0.017429
   4 C :    0.083992
   5 H :    0.018304
   6 O :   -0.183538
   7 H :    0.034040
   8 H :    0.035113
Sum of atomic charges:   -0.0000000

LOEWDIN ATOMIC CHARGES
----------------------
   0 C :    0.012154
   1 C :   -0.086786
   2 C :   -0.084109
   3 H :    0.035498
   4 C :    0.012928
   5 H :    0.035679
   6 O :    0.019095
   7 H :    0.027623
   8 H :    0.027919

  Mayer bond orders larger than 0.100000
B(  0-C ,  1-C ) :   1.5047 B(  0-C ,  4-C ) :   0.1293 B(  0-C ,  6-O ) :   1.1614
B(  0-C ,  7-H ) :   0.9886 B(  1-C ,  2-C ) :   1.2767 B(  1-C ,  3-H ) :   0.9928
B(  2-C ,  4-C ) :   1.5071 B(  2-C ,  5-H ) :   0.9924 B(  4-C ,  6-O ) :   1.1472
B(  4-C ,  8-H ) :   0.9894

Dispersion correction           -0.009788866
FINAL SINGLE POINT ENERGY      -229.869674484498

DIPOLE MOMENT
-------------
                                X             Y             Z
Electronic contribution:      0.94299      -1.45364       0.05608
Nuclear contribution   :     -1.03795       1.60316      -0.06171
                        -----------------------------------------
Total Dipole Moment    :     -0.09496       0.14951      -0.00563
                        -----------------------------------------
Magnitude (a.u.)       :      0.17721
Magnitude (Debye)      :      0.45043

Rotational constants in cm-1:     0.310509     0.300558     0.152726
Rotational constants in MHz :  9308.835186  9010.497902  4578.618743

                             ****ORCA TERMINATED NORMALLY****
TOTAL RUN TIME: 0 days 0 hours 0 minutes 37 seconds 280 msec
