                         Program Version 4.2.0 -  RELEASE  -
|  1> ! RI BP86 def2-SVP def2/J D3BJ TIGHTSCF  Opt Grid3 FinalGrid5
|  2> %maxcore 3000
|  3> %geom
|  4> Constraints
|  5> {D 1 5 61 67 0.0 C}
|  6> {D 6 5 61 61 0.0 C}
|  7> {D 2 3 18 19 0.0 C}
|  8> {D 4 3 18 24 0.0 C}
|  9> {D 20 22 25 30 0.0 C}
| 10> {D 24 22 25 26 0.0 C}
| 11> {D 32 33 35 37 0.0 C}
| 12> {D 31 33 35 36 0.0 C}
| 13> {D 37 38 42 43 0.0 C}
| 14> {D 39 38 42 45 0.0 C}
| 15> end
| 16> end
| 17>
| 18> *xyz 0 1
| 19> C	-6.370303	0.265804	0.046593
| 20> C	-5.416703	-0.863586	0.013813
| 21> N	-5.544963	1.401714	0.024283
| 22> C	-4.181213	1.072044	0.007403
| 23> C	-4.086653	-0.270256	-0.000247
| 24> C	-5.325413	-2.208566	-0.006987
| 25> N	-3.961013	-2.537676	-0.050487
| 26> C	-3.134563	-1.395136	-0.018927
| 27> C	-3.306853	-3.816806	-0.082407
| 28> H	-3.932463	-4.617996	-0.458757
| 29> H	-2.930193	-4.044526	0.920163
| 30> H	-2.443703	-3.759416	-0.755627
| 31> C	-6.153923	2.705724	0.018803
| 32> H	-7.245953	2.634004	0.018473
| 33> H	-5.864053	3.239994	-0.890077
| 34> H	-5.862033	3.248884	0.921283
| 35> O	-7.583083	0.244934	0.085873
| 36> O	-1.920813	-1.365256	-0.007097
| 37> C	-3.105393	2.035764	0.002153
| 38> C	-3.147363	3.425964	0.001723
| 39> C	-1.876803	4.069234	0.002033
| 40> H	-4.047193	4.018594	0.002573
| 41> C	-0.825473	3.180404	0.002203
| 42> H	-1.763333	5.146614	0.002653
| 43> S	-1.430133	1.580664	0.001433
| 44> C	0.595937	3.493434	0.002803
| 45> C	1.664667	2.612674	0.002893
| 46> C	2.919827	3.299844	0.001843
| 47> H	1.572817	1.533234	0.003083
| 48> C	2.786987	4.653804	0.001953
| 49> S	1.120967	5.141014	0.003723
| 50> S	4.595697	2.823124	0.000373
| 51> C	4.034317	5.345574	0.000863
| 52> C	5.108807	4.473694	-0.000747
| 53> H	4.115427	6.426034	0.001973
| 54> C	6.520597	4.824554	0.000153
| 55> C	7.610747	3.986394	0.020383
| 56> S	7.052397	6.446114	-0.025377
| 57> C	8.751187	6.079444	0.006063
| 58> C	8.855507	4.693054	0.034093
| 59> H	7.544927	2.905034	0.033973
| 60> H	9.772697	4.133484	0.065903
| 61> C	9.741927	7.133704	0.002323
| 62> C	9.474997	8.461364	0.005103
| 63> C	10.735297	9.170244	0.002343
| 64> N	11.149357	6.972854	-0.008067
| 65> C	11.828637	8.210734	-0.001697
| 66> C	10.539517	10.482344	0.003913
| 67> C	8.429477	9.534924	0.010123
| 68> N	9.182787	10.726184	0.007403
| 69> H	11.274807	11.274204	0.002263
| 70> C	8.604757	12.046494	0.006863
| 71> H	7.513007	11.990654	0.006913
| 72> H	8.937437	12.581994	-0.887327
| 73> H	8.937827	12.582894	0.900273
| 74> C	11.980787	5.804564	-0.011707
| 75> H	11.456187	4.867054	-0.100047
| 76> H	12.576087	5.796134	0.907793
| 77> H	12.676927	5.874494	-0.855097
| 78> O	7.219727	9.428004	0.014593
| 79> O	13.012967	8.457984	0.000443
| 80> C	-6.429103	-3.143756	0.002053
| 81> C	-6.472773	-4.529186	0.165943
| 82> C	-7.777523	-5.111686	0.088323
| 83> H	-5.614163	-5.156026	0.343083
| 84> C	-8.746513	-4.159776	-0.072667
| 85> H	-7.989603	-6.170646	0.172273
| 86> S	-8.072733	-2.613276	-0.220087
| 87> H	-9.818093	-4.299006	-0.125267
| 88> **                         ****END OF INPUT****
ORCA finished by error termination in GSTEP
                         Program Version 4.2.0 -  RELEASE  -
|  1> ! RI BP86 def2-SVP def2/J D3BJ TIGHTSCF  Opt Grid3 FinalGrid5
|  2> %maxcore 3000
|  3> %geom
|  4> Constraints
|  5> {D 1 5 61 67 0.0 C}
|  6> {D 6 5 61 62 0.0 C}
|  7> {D 2 3 18 19 0.0 C}
|  8> {D 4 3 18 24 0.0 C}
|  9> {D 20 22 25 30 0.0 C}
| 10> {D 24 22 25 26 0.0 C}
| 11> {D 32 33 35 37 0.0 C}
| 12> {D 31 33 35 36 0.0 C}
| 13> {D 37 38 42 43 0.0 C}
| 14> {D 39 38 42 45 0.0 C}
| 15> end
| 16> end
| 17>
| 18> *xyz 0 1
| 19> C	-6.370303	0.265804	0.046593
| 20> C	-5.416703	-0.863586	0.013813
| 21> N	-5.544963	1.401714	0.024283
| 22> C	-4.181213	1.072044	0.007403
| 23> C	-4.086653	-0.270256	-0.000247
| 24> C	-5.325413	-2.208566	-0.006987
| 25> N	-3.961013	-2.537676	-0.050487
| 26> C	-3.134563	-1.395136	-0.018927
| 27> C	-3.306853	-3.816806	-0.082407
| 28> H	-3.932463	-4.617996	-0.458757
| 29> H	-2.930193	-4.044526	0.920163
| 30> H	-2.443703	-3.759416	-0.755627
| 31> C	-6.153923	2.705724	0.018803
| 32> H	-7.245953	2.634004	0.018473
| 33> H	-5.864053	3.239994	-0.890077
| 34> H	-5.862033	3.248884	0.921283
| 35> O	-7.583083	0.244934	0.085873
| 36> O	-1.920813	-1.365256	-0.007097
| 37> C	-3.105393	2.035764	0.002153
| 38> C	-3.147363	3.425964	0.001723
| 39> C	-1.876803	4.069234	0.002033
| 40> H	-4.047193	4.018594	0.002573
| 41> C	-0.825473	3.180404	0.002203
| 42> H	-1.763333	5.146614	0.002653
| 43> S	-1.430133	1.580664	0.001433
| 44> C	0.595937	3.493434	0.002803
| 45> C	1.664667	2.612674	0.002893
| 46> C	2.919827	3.299844	0.001843
| 47> H	1.572817	1.533234	0.003083
| 48> C	2.786987	4.653804	0.001953
| 49> S	1.120967	5.141014	0.003723
| 50> S	4.595697	2.823124	0.000373
| 51> C	4.034317	5.345574	0.000863
| 52> C	5.108807	4.473694	-0.000747
| 53> H	4.115427	6.426034	0.001973
| 54> C	6.520597	4.824554	0.000153
| 55> C	7.610747	3.986394	0.020383
| 56> S	7.052397	6.446114	-0.025377
| 57> C	8.751187	6.079444	0.006063
| 58> C	8.855507	4.693054	0.034093
| 59> H	7.544927	2.905034	0.033973
| 60> H	9.772697	4.133484	0.065903
| 61> C	9.741927	7.133704	0.002323
| 62> C	9.474997	8.461364	0.005103
| 63> C	10.735297	9.170244	0.002343
| 64> N	11.149357	6.972854	-0.008067
| 65> C	11.828637	8.210734	-0.001697
| 66> C	10.539517	10.482344	0.003913
| 67> C	8.429477	9.534924	0.010123
| 68> N	9.182787	10.726184	0.007403
| 69> H	11.274807	11.274204	0.002263
| 70> C	8.604757	12.046494	0.006863
| 71> H	7.513007	11.990654	0.006913
| 72> H	8.937437	12.581994	-0.887327
| 73> H	8.937827	12.582894	0.900273
| 74> C	11.980787	5.804564	-0.011707
| 75> H	11.456187	4.867054	-0.100047
| 76> H	12.576087	5.796134	0.907793
| 77> H	12.676927	5.874494	-0.855097
| 78> O	7.219727	9.428004	0.014593
| 79> O	13.012967	8.457984	0.000443
| 80> C	-6.429103	-3.143756	0.002053
| 81> C	-6.472773	-4.529186	0.165943
| 82> C	-7.777523	-5.111686	0.088323
| 83> H	-5.614163	-5.156026	0.343083
| 84> C	-8.746513	-4.159776	-0.072667
| 85> H	-7.989603	-6.170646	0.172273
| 86> S	-8.072733	-2.613276	-0.220087
| 87> H	-9.818093	-4.299006	-0.125267
| 88> **                         ****END OF INPUT****
 Total Charge           Charge          ....    0
 Multiplicity           Mult            ....    1
 Number of Electrons    NEL             ....  366
Dispersion correction           -0.185313279
FINAL SINGLE POINT ENERGY     -3818.219404379900
Dispersion correction            ... done
Dispersion correction           -0.185703163
FINAL SINGLE POINT ENERGY     -3818.254548497332
Dispersion correction            ... done
Dispersion correction           -0.186035036
FINAL SINGLE POINT ENERGY     -3818.265555976162
Dispersion correction            ... done
FINAL SINGLE POINT ENERGY     -3818.268138498277
FINAL SINGLE POINT ENERGY     -3818.269829456282
FINAL SINGLE POINT ENERGY     -3818.271193714315
FINAL SINGLE POINT ENERGY     -3818.272296425610
FINAL SINGLE POINT ENERGY     -3818.273403046727
FINAL SINGLE POINT ENERGY     -3818.274621909635
FINAL SINGLE POINT ENERGY     -3818.275814167184
FINAL SINGLE POINT ENERGY     -3818.276878228741
FINAL SINGLE POINT ENERGY     -3818.277787639032
FINAL SINGLE POINT ENERGY     -3818.278448943875
FINAL SINGLE POINT ENERGY     -3818.278784921948
FINAL SINGLE POINT ENERGY     -3818.278891716235
FINAL SINGLE POINT ENERGY     -3818.278947873671
FINAL SINGLE POINT ENERGY     -3818.278974383507
Dispersion correction            ... done
Dispersion correction           -0.186434099
FINAL SINGLE POINT ENERGY     -3818.278980739001
Dispersion correction            ... done
Dispersion correction           -0.186434607
FINAL SINGLE POINT ENERGY     -3818.278984144825
Dispersion correction            ... done
                    ***********************HURRAY********************

CARTESIAN COORDINATES (ANGSTROEM)
---------------------------------
  C     -6.369584    0.234326    0.010945
  C     -5.362854   -0.812759    0.014165
  N     -5.591258    1.460047    0.007023
  C     -4.218982    1.199011    0.007207
  C     -4.074255   -0.205366    0.011675
  C     -5.217198   -2.215851    0.020140
  N     -3.846304   -2.476925    0.021011
  C     -3.068189   -1.250386    0.016340
  C     -3.156934   -3.747716    0.027419
  H     -3.391487   -4.348436   -0.875164
  H     -3.392698   -4.339794    0.935343
  H     -2.076231   -3.504892    0.026885
  C     -6.278803    2.731514    0.002457
  H     -7.359858    2.489862    0.002848
  H     -6.043277    3.324854   -0.904919
  H     -6.044144    3.330993    0.906031
  O     -7.599574    0.228623    0.011779
  O     -1.836926   -1.244243    0.016322
  C     -3.186577    2.195374    0.003700
  C     -3.267623    3.601797   -0.000564
  C     -2.013579    4.241425   -0.002865
  H     -4.212526    4.152311   -0.001870
  C     -0.934065    3.345550   -0.000320
  H     -1.884285    5.332902   -0.006196
  S     -1.492238    1.685034    0.004834
  C      0.473222    3.640632   -0.001496
  C      1.548618    2.742727    0.001017
  C      2.792218    3.415446   -0.000998
  H      1.414257    1.652704    0.004303
  C      2.690534    4.830087   -0.005150
  S      1.019425    5.331281   -0.006795
  S      4.463065    2.914238    0.000416
  C      3.934109    5.502531   -0.006950
  C      5.009370    4.604717   -0.004079
  H      4.068464    6.592615   -0.010010
  C      6.416990    4.899848   -0.004462
  C      7.496165    4.003093   -0.001659
  S      6.975116    6.559340   -0.008958
  C      8.668893    6.048406   -0.006972
  C      8.750335    4.642876   -0.003068
  H      7.366483    2.911715    0.001061
  H      9.695249    4.092358   -0.001502
  C      9.699303    7.049137   -0.009204
  C      9.543344    8.449773   -0.012937
  C     10.840259    9.061745   -0.012345
  N     11.071875    6.786970   -0.007793
  C     11.856072    8.016029   -0.008251
  C     10.671716   10.439264   -0.006458
  C      8.533536    9.495520   -0.007731
  N      9.324334   10.719037   -0.003959
  H     11.419450   11.242851   -0.004127
  C      8.701658   12.025565   -0.001424
  H      7.607546   11.854482    0.002609
  H      8.973442   12.608194   -0.905938
  H      8.980363   12.607634    0.901285
  C     11.757710    5.515060   -0.006459
  H     11.522702    4.917092   -0.911179
  H     11.524215    4.919147    0.899900
  H     12.838898    5.757035   -0.007519
  O      7.301459    9.498932   -0.005712
  O     13.080314    8.021757   -0.006860
  C     -6.249794   -3.220465    0.024082
  C     -6.161945   -4.622688    0.029440
  C     -7.426581   -5.266042    0.031591
  H     -5.216028   -5.171503    0.031473
  C     -8.479155   -4.363246    0.027815
  H     -7.560003   -6.356424    0.035744
  S     -7.947096   -2.720634    0.021466
  H     -9.554724   -4.580990    0.028426

 Multiplicity           Mult            ....    1
 Number of Electrons    NEL             ....  366
 Basis Dimension        Dim             ....  788

ORBITAL ENERGIES
----------------

  NO   OCC          E(Eh)            E(eV)
   0   2.0000     -88.134613     -2398.2647
   1   2.0000     -88.134343     -2398.2574
   2   2.0000     -88.129802     -2398.1338
   3   2.0000     -88.128840     -2398.1076
   4   2.0000     -88.127499     -2398.0712
   5   2.0000     -18.760662      -510.5036
   6   2.0000     -18.759204      -510.4639
   7   2.0000     -18.759053      -510.4598
   8   2.0000     -18.758343      -510.4405
   9   2.0000     -14.069194      -382.8422
  10   2.0000     -14.068971      -382.8362
  11   2.0000     -14.068222      -382.8158
  12   2.0000     -14.067192      -382.7877
  13   2.0000     -10.013182      -272.4725
  14   2.0000     -10.012759      -272.4610
  15   2.0000     -10.012198      -272.4458
  16   2.0000     -10.011012      -272.4135
  17   2.0000      -9.991343      -271.8783
  18   2.0000      -9.989424      -271.8260
  19   2.0000      -9.988944      -271.8130
  20   2.0000      -9.974133      -271.4100
  21   2.0000      -9.972884      -271.3760
  22   2.0000      -9.972872      -271.3756
  23   2.0000      -9.969716      -271.2898
  24   2.0000      -9.969433      -271.2821
  25   2.0000      -9.969338      -271.2795
  26   2.0000      -9.968347      -271.2525
  27   2.0000      -9.966018      -271.1891
  28   2.0000      -9.963596      -271.1232
  29   2.0000      -9.963349      -271.1165
  30   2.0000      -9.959861      -271.0216
  31   2.0000      -9.959181      -271.0031
  32   2.0000      -9.958841      -270.9938
  33   2.0000      -9.958588      -270.9869
  34   2.0000      -9.952358      -270.8174
  35   2.0000      -9.947160      -270.6760
  36   2.0000      -9.946659      -270.6623
  37   2.0000      -9.943761      -270.5835
  38   2.0000      -9.942411      -270.5468
  39   2.0000      -9.940080      -270.4833
  40   2.0000      -9.939543      -270.4687
  41   2.0000      -9.938303      -270.4350
  42   2.0000      -9.934649      -270.3355
  43   2.0000      -9.917932      -269.8807
  44   2.0000      -9.917500      -269.8689
  45   2.0000      -9.916069      -269.8299
  46   2.0000      -9.915960      -269.8270
  47   2.0000      -7.730460      -210.3565
  48   2.0000      -7.730192      -210.3492
  49   2.0000      -7.725270      -210.2153
  50   2.0000      -7.724296      -210.1888
  51   2.0000      -7.723199      -210.1589
  52   2.0000      -5.757835      -156.6787
  53   2.0000      -5.757576      -156.6716
  54   2.0000      -5.753682      -156.5656
  55   2.0000      -5.753422      -156.5586
  56   2.0000      -5.752563      -156.5352
  57   2.0000      -5.751609      -156.5092
  58   2.0000      -5.750316      -156.4741
  59   2.0000      -5.748802      -156.4329
  60   2.0000      -5.748526      -156.4254
  61   2.0000      -5.748060      -156.4127
  62   2.0000      -5.747103      -156.3866
  63   2.0000      -5.745569      -156.3449
  64   2.0000      -5.744194      -156.3075
  65   2.0000      -5.743184      -156.2800
  66   2.0000      -5.742755      -156.2683
  67   2.0000      -0.949094       -25.8262
  68   2.0000      -0.947840       -25.7920
  69   2.0000      -0.943711       -25.6797
  70   2.0000      -0.942417       -25.6445
  71   2.0000      -0.886453       -24.1216
  72   2.0000      -0.885475       -24.0950
  73   2.0000      -0.878490       -23.9049
  74   2.0000      -0.876964       -23.8634
  75   2.0000      -0.845099       -22.9963
  76   2.0000      -0.823801       -22.4168
  77   2.0000      -0.816559       -22.2197
  78   2.0000      -0.812991       -22.1226
  79   2.0000      -0.783897       -21.3309
  80   2.0000      -0.758718       -20.6458
  81   2.0000      -0.756418       -20.5832
  82   2.0000      -0.721912       -19.6442
  83   2.0000      -0.715096       -19.4588
  84   2.0000      -0.709415       -19.3042
  85   2.0000      -0.700937       -19.0735
  86   2.0000      -0.691427       -18.8147
  87   2.0000      -0.685120       -18.6431
  88   2.0000      -0.683541       -18.6001
  89   2.0000      -0.681542       -18.5457
  90   2.0000      -0.678379       -18.4596
  91   2.0000      -0.664382       -18.0787
  92   2.0000      -0.653632       -17.7862
  93   2.0000      -0.645584       -17.5672
  94   2.0000      -0.632544       -17.2124
  95   2.0000      -0.623000       -16.9527
  96   2.0000      -0.616241       -16.7688
  97   2.0000      -0.610542       -16.6137
  98   2.0000      -0.599030       -16.3004
  99   2.0000      -0.572028       -15.5657
 100   2.0000      -0.547969       -14.9110
 101   2.0000      -0.540482       -14.7073
 102   2.0000      -0.538775       -14.6608
 103   2.0000      -0.536236       -14.5917
 104   2.0000      -0.532908       -14.5012
 105   2.0000      -0.528409       -14.3787
 106   2.0000      -0.526245       -14.3199
 107   2.0000      -0.521673       -14.1955
 108   2.0000      -0.507942       -13.8218
 109   2.0000      -0.499259       -13.5855
 110   2.0000      -0.494999       -13.4696
 111   2.0000      -0.489052       -13.3078
 112   2.0000      -0.482720       -13.1355
 113   2.0000      -0.479273       -13.0417
 114   2.0000      -0.464071       -12.6280
 115   2.0000      -0.460381       -12.5276
 116   2.0000      -0.450648       -12.2628
 117   2.0000      -0.449092       -12.2204
 118   2.0000      -0.442612       -12.0441
 119   2.0000      -0.440466       -11.9857
 120   2.0000      -0.437955       -11.9174
 121   2.0000      -0.437915       -11.9163
 122   2.0000      -0.435631       -11.8541
 123   2.0000      -0.426509       -11.6059
 124   2.0000      -0.423946       -11.5362
 125   2.0000      -0.422072       -11.4852
 126   2.0000      -0.414792       -11.2871
 127   2.0000      -0.406086       -11.0502
 128   2.0000      -0.400547       -10.8994
 129   2.0000      -0.396803       -10.7975
 130   2.0000      -0.393520       -10.7082
 131   2.0000      -0.389742       -10.6054
 132   2.0000      -0.385096       -10.4790
 133   2.0000      -0.383994       -10.4490
 134   2.0000      -0.380695       -10.3592
 135   2.0000      -0.378211       -10.2916
 136   2.0000      -0.377854       -10.2819
 137   2.0000      -0.375781       -10.2255
 138   2.0000      -0.373737       -10.1699
 139   2.0000      -0.371409       -10.1065
 140   2.0000      -0.371257       -10.1024
 141   2.0000      -0.370935       -10.0937
 142   2.0000      -0.368299       -10.0219
 143   2.0000      -0.366709        -9.9786
 144   2.0000      -0.364872        -9.9287
 145   2.0000      -0.362498        -9.8641
 146   2.0000      -0.362200        -9.8560
 147   2.0000      -0.357386        -9.7250
 148   2.0000      -0.354679        -9.6513
 149   2.0000      -0.353529        -9.6200
 150   2.0000      -0.350765        -9.5448
 151   2.0000      -0.350123        -9.5273
 152   2.0000      -0.348886        -9.4937
 153   2.0000      -0.344697        -9.3797
 154   2.0000      -0.340519        -9.2660
 155   2.0000      -0.335321        -9.1246
 156   2.0000      -0.332393        -9.0449
 157   2.0000      -0.330081        -8.9820
 158   2.0000      -0.321048        -8.7362
 159   2.0000      -0.316409        -8.6099
 160   2.0000      -0.314224        -8.5505
 161   2.0000      -0.311728        -8.4825
 162   2.0000      -0.310603        -8.4519
 163   2.0000      -0.304400        -8.2831
 164   2.0000      -0.297582        -8.0976
 165   2.0000      -0.296762        -8.0753
 166   2.0000      -0.274256        -7.4629
 167   2.0000      -0.262211        -7.1351
 168   2.0000      -0.244454        -6.6519
 169   2.0000      -0.243354        -6.6220
 170   2.0000      -0.240698        -6.5497
 171   2.0000      -0.232728        -6.3329
 172   2.0000      -0.231304        -6.2941
 173   2.0000      -0.230585        -6.2745
 174   2.0000      -0.229961        -6.2576
 175   2.0000      -0.222381        -6.0513
 176   2.0000      -0.221371        -6.0238
 177   2.0000      -0.220980        -6.0132
 178   2.0000      -0.220609        -6.0031
 179   2.0000      -0.219889        -5.9835
 180   2.0000      -0.197076        -5.3627
 181   2.0000      -0.176780        -4.8104
 182   2.0000      -0.168193        -4.5768
 183   0.0000      -0.130057        -3.5390
 184   0.0000      -0.117773        -3.2048
 185   0.0000      -0.093415        -2.5420
 186   0.0000      -0.074492        -2.0270
 187   0.0000      -0.057217        -1.5570

MULLIKEN ATOMIC CHARGES
-----------------------
   0 C :    0.130367
   1 C :   -0.087152
   2 N :   -0.287406
   3 C :    0.189305
   4 C :   -0.081988
   5 C :    0.195019
   6 N :   -0.286682
   7 C :    0.128735
   8 C :    0.055434
   9 H :    0.058045
  10 H :    0.057989
  11 H :    0.067530
  12 C :    0.055002
  13 H :    0.068704
  14 H :    0.057325
  15 H :    0.057357
  16 O :   -0.181826
  17 O :   -0.185741
  18 C :   -0.130453
  19 C :   -0.013327
  20 C :   -0.025721
  21 H :   -0.010585
  22 C :   -0.040078
  23 H :    0.012430
  24 S :    0.175802
  25 C :   -0.068364
  26 C :   -0.040727
  27 C :   -0.023457
  28 H :    0.028925
  29 C :   -0.023827
  30 S :    0.135915
  31 S :    0.136024
  32 C :   -0.040008
  33 C :   -0.069222
  34 H :    0.029538
  35 C :   -0.039470
  36 C :   -0.026132
  37 S :    0.178373
  38 C :   -0.133026
  39 C :   -0.011397
  40 H :    0.012800
  41 H :   -0.009476
  42 C :    0.207476
  43 C :   -0.119270
  44 C :   -0.005782
  45 N :   -0.294769
  46 C :    0.149029
  47 C :    0.032546
  48 C :    0.138647
  49 N :   -0.261588
  50 H :    0.032115
  51 C :    0.054706
  52 H :    0.068943
  53 H :    0.052447
  54 H :    0.052333
  55 C :    0.053923
  56 H :    0.056895
  57 H :    0.056924
  58 H :    0.068011
  59 O :   -0.186375
  60 O :   -0.169675
  61 C :   -0.178025
  62 C :   -0.008959
  63 C :    0.019367
  64 H :   -0.007670
  65 C :   -0.084564
  66 H :    0.014453
  67 S :    0.186759
  68 H :    0.057548
Sum of atomic charges:   -0.0000000

LOEWDIN ATOMIC CHARGES
----------------------
   0 C :    0.054620
   1 C :   -0.119569
   2 N :   -0.001948
   3 C :    0.035281
   4 C :   -0.118456
   5 C :    0.040229
   6 N :    0.000277
   7 C :    0.053986
   8 C :    0.008237
   9 H :    0.031854
  10 H :    0.031859
  11 H :    0.042980
  12 C :    0.007791
  13 H :    0.043614
  14 H :    0.031389
  15 H :    0.031394
  16 O :   -0.182907
  17 O :   -0.185185
  18 C :   -0.175396
  19 C :   -0.053298
  20 C :   -0.065028
  21 H :    0.036101
  22 C :   -0.181374
  23 H :    0.035175
  24 S :    0.481010
  25 C :   -0.171783
  26 C :   -0.070747
  27 C :   -0.192414
  28 H :    0.044067
  29 C :   -0.193176
  30 S :    0.417503
  31 S :    0.417863
  32 C :   -0.069185
  33 C :   -0.173539
  34 H :    0.044328
  35 C :   -0.179172
  36 C :   -0.066215
  37 S :    0.484404
  38 C :   -0.177702
  39 C :   -0.050172
  40 H :    0.035270
  41 H :    0.036615
  42 C :    0.042842
  43 C :   -0.127917
  44 C :   -0.119058
  45 N :   -0.008563
  46 C :    0.065556
  47 C :    0.061641
  48 C :    0.049368
  49 N :    0.003996
  50 H :    0.037148
  51 C :    0.010662
  52 H :    0.042975
  53 H :    0.033115
  54 H :    0.033154
  55 C :    0.006931
  56 H :    0.031041
  57 H :    0.030995
  58 H :    0.043508
  59 O :   -0.186624
  60 O :   -0.169267
  61 C :   -0.183438
  62 C :   -0.060380
  63 C :   -0.069960
  64 H :    0.034096
  65 C :   -0.185037
  66 H :    0.038529
  67 S :    0.490384
  68 H :    0.035723

  Mayer bond orders larger than 0.100000
B(  0-C ,  1-C ) :   1.0191 B(  0-C ,  2-N ) :   0.9786 B(  0-C , 16-O ) :   2.0533
B(  1-C ,  4-C ) :   1.2894 B(  1-C ,  5-C ) :   1.2704 B(  2-N ,  3-C ) :   1.1830
B(  2-N , 12-C ) :   0.9886 B(  3-C ,  4-C ) :   1.2608 B(  3-C , 18-C ) :   1.2123
B(  4-C ,  7-C ) :   1.0240 B(  5-C ,  6-N ) :   1.1889 B(  5-C , 61-C ) :   1.2059
B(  6-N ,  7-C ) :   0.9789 B(  6-N ,  8-C ) :   0.9880 B(  7-C , 17-O ) :   2.0411
B(  8-C ,  9-H ) :   0.9576 B(  8-C , 10-H ) :   0.9576 B(  8-C , 11-H ) :   0.9303
B( 12-C , 13-H ) :   0.9301 B( 12-C , 14-H ) :   0.9574 B( 12-C , 15-H ) :   0.9574
B( 18-C , 19-C ) :   1.3499 B( 18-C , 22-C ) :   0.1020 B( 18-C , 24-S ) :   1.1206
B( 19-C , 20-C ) :   1.3069 B( 19-C , 21-H ) :   0.9813 B( 20-C , 22-C ) :   1.3831
B( 20-C , 23-H ) :   0.9736 B( 22-C , 24-S ) :   1.1082 B( 22-C , 25-C ) :   1.2193
B( 25-C , 26-C ) :   1.4210 B( 25-C , 30-S ) :   1.0895 B( 26-C , 27-C ) :   1.2964
B( 26-C , 28-H ) :   0.9754 B( 27-C , 29-C ) :   1.3521 B( 27-C , 31-S ) :   1.0733
B( 29-C , 30-S ) :   1.0722 B( 29-C , 32-C ) :   1.2975 B( 31-S , 33-C ) :   1.0891
B( 32-C , 33-C ) :   1.4217 B( 32-C , 34-H ) :   0.9753 B( 33-C , 35-C ) :   1.2180
B( 35-C , 36-C ) :   1.3824 B( 35-C , 37-S ) :   1.1133 B( 35-C , 38-C ) :   0.1028
B( 36-C , 39-C ) :   1.3067 B( 36-C , 40-H ) :   0.9738 B( 37-S , 38-C ) :   1.1201
B( 38-C , 39-C ) :   1.3539 B( 38-C , 42-C ) :   1.2100 B( 39-C , 41-H ) :   0.9810
B( 42-C , 43-C ) :   1.2900 B( 42-C , 45-N ) :   1.1795 B( 43-C , 44-C ) :   1.2600
B( 43-C , 48-C ) :   1.0351 B( 44-C , 46-C ) :   0.9899 B( 44-C , 47-C ) :   1.3758
B( 45-N , 46-C ) :   0.9553 B( 45-N , 55-C ) :   0.9899 B( 46-C , 60-O ) :   2.1104
B( 47-C , 49-N ) :   1.2160 B( 47-C , 50-H ) :   0.9745 B( 48-C , 49-N ) :   0.9790
B( 48-C , 59-O ) :   2.0358 B( 49-N , 51-C ) :   0.9787 B( 51-C , 52-H ) :   0.9471
B( 51-C , 53-H ) :   0.9669 B( 51-C , 54-H ) :   0.9669 B( 55-C , 56-H ) :   0.9574
B( 55-C , 57-H ) :   0.9574 B( 55-C , 58-H ) :   0.9300 B( 61-C , 62-C ) :   1.3822
B( 61-C , 65-C ) :   0.1047 B( 61-C , 67-S ) :   1.1497 B( 62-C , 63-C ) :   1.2849
B( 62-C , 64-H ) :   0.9807 B( 63-C , 65-C ) :   1.4784 B( 63-C , 66-H ) :   0.9787
B( 65-C , 67-S ) :   1.1781 B( 65-C , 68-H ) :   0.9608

Dispersion correction           -0.186432827
FINAL SINGLE POINT ENERGY     -3818.278985773634

DIPOLE MOMENT
-------------
                                X             Y             Z
Electronic contribution:     -4.87288       0.41164      -0.06147
Nuclear contribution   :      4.23348      -0.93916       0.06678
                        -----------------------------------------
Total Dipole Moment    :     -0.63940      -0.52752       0.00531
                        -----------------------------------------
Magnitude (a.u.)       :      0.82894
Magnitude (Debye)      :      2.10700

Rotational constants in cm-1:     0.006661     0.000403     0.000380
Rotational constants in MHz :   199.687663    12.082265    11.396328

                             ****ORCA TERMINATED NORMALLY****
TOTAL RUN TIME: 0 days 1 hours 21 minutes 49 seconds 298 msec
