                         Program Version 4.2.0 -  RELEASE  -
|  1> ! RI BP86 def2-SVP def2/J D3BJ TIGHTSCF  Opt Grid3 FinalGrid5
|  2> %maxcore 3000
|  3> %geom
|  4> optimizehydrogens true
|  5> end
|  6>
|  7>
|  8> *xyz 0 1
|  9> C	2.269658	1.338130	-0.002392
| 10> C	3.348833	0.441375	0.000411
| 11> S	2.827784	2.997622	-0.006888
| 12> C	4.521561	2.486688	-0.004902
| 13> C	4.603003	1.081158	-0.000998
| 14> H	3.219151	-0.650003	0.003131
| 15> H	5.547917	0.530640	0.000568
| 16> H	1.212641	1.116509	-0.002104
| 17> H	5.296311	3.239124	-0.006580
| 18> **                         ****END OF INPUT****
 Total Charge           Charge          ....    0
 Multiplicity           Mult            ....    1
 Number of Electrons    NEL             ....   44
Dispersion correction           -0.013895206
FINAL SINGLE POINT ENERGY      -552.826986703522
Dispersion correction            ... done
Dispersion correction           -0.013880933
FINAL SINGLE POINT ENERGY      -552.827413758960
Dispersion correction            ... done
Dispersion correction           -0.013880440
FINAL SINGLE POINT ENERGY      -552.827444153187
Dispersion correction            ... done
Dispersion correction           -0.013880985
FINAL SINGLE POINT ENERGY      -552.827475175032
Dispersion correction            ... done
                    ***********************HURRAY********************

CARTESIAN COORDINATES (ANGSTROEM)
---------------------------------
  C      2.267393    1.334262   -0.002399
  C      3.347779    0.438966    0.000294
  S      2.823274    2.994507   -0.006747
  C      4.517741    2.485864   -0.004846
  C      4.601083    1.080445   -0.001080
  H      3.210942   -0.651544    0.003194
  H      5.565158    0.552049    0.000629
  H      1.192988    1.114386   -0.002134
  H      5.320501    3.232308   -0.006664

 Multiplicity           Mult            ....    1
 Number of Electrons    NEL             ....   44
 Basis Dimension        Dim             ....   94

ORBITAL ENERGIES
----------------

  NO   OCC          E(Eh)            E(eV)
   0   2.0000     -88.120074     -2397.8691
   1   2.0000      -9.943643      -270.5803
   2   2.0000      -9.942521      -270.5498
   3   2.0000      -9.923430      -270.0303
   4   2.0000      -9.922758      -270.0120
   5   2.0000      -7.715702      -209.9549
   6   2.0000      -5.742638      -156.2651
   7   2.0000      -5.738237      -156.1454
   8   2.0000      -5.735479      -156.0703
   9   2.0000      -0.792181       -21.5563
  10   2.0000      -0.664760       -18.0890
  11   2.0000      -0.642213       -17.4755
  12   2.0000      -0.507252       -13.8030
  13   2.0000      -0.492827       -13.4105
  14   2.0000      -0.460549       -12.5322
  15   2.0000      -0.366409        -9.9705
  16   2.0000      -0.355945        -9.6858
  17   2.0000      -0.344921        -9.3858
  18   2.0000      -0.336760        -9.1637
  19   2.0000      -0.309565        -8.4237
  20   2.0000      -0.230245        -6.2653
  21   2.0000      -0.209559        -5.7024
  22   0.0000      -0.054758        -1.4900
  23   0.0000       0.005763         0.1568
  24   0.0000       0.019496         0.5305
  25   0.0000       0.048889         1.3303
  26   0.0000       0.064940         1.7671

MULLIKEN ATOMIC CHARGES
-----------------------
   0 C :   -0.133041
   1 C :    0.015323
   2 S :    0.089490
   3 C :   -0.134875
   4 C :    0.015189
   5 H :    0.017852
   6 H :    0.017767
   7 H :    0.056113
   8 H :    0.056183
Sum of atomic charges:   -0.0000000

LOEWDIN ATOMIC CHARGES
----------------------
   0 C :   -0.200108
   1 C :   -0.077000
   2 S :    0.411537
   3 C :   -0.196834
   4 C :   -0.074604
   5 H :    0.037057
   6 H :    0.036746
   7 H :    0.031660
   8 H :    0.031546

  Mayer bond orders larger than 0.100000
B(  0-C ,  1-C ) :   1.5227 B(  0-C ,  2-S ) :   1.1886 B(  0-C ,  3-C ) :   0.1181
B(  0-C ,  7-H ) :   0.9622 B(  1-C ,  4-C ) :   1.3154 B(  1-C ,  5-H ) :   0.9817
B(  2-S ,  3-C ) :   1.1797 B(  3-C ,  4-C ) :   1.5239 B(  3-C ,  8-H ) :   0.9640
B(  4-C ,  6-H ) :   0.9811

Dispersion correction           -0.013881286
FINAL SINGLE POINT ENERGY      -552.827475507424

DIPOLE MOMENT
-------------
                                X             Y             Z
Electronic contribution:     -1.66919       3.23055      -0.00921
Nuclear contribution   :      1.74197      -3.37902       0.00959
                        -----------------------------------------
Total Dipole Moment    :      0.07278      -0.14847       0.00038
                        -----------------------------------------
Magnitude (a.u.)       :      0.16535
Magnitude (Debye)      :      0.42028

Rotational constants in cm-1:     0.260743     0.172557     0.103838
Rotational constants in MHz :  7816.886668  5173.143100  3112.993124

                             ****ORCA TERMINATED NORMALLY****
TOTAL RUN TIME: 0 days 0 hours 0 minutes 36 seconds 577 msec
