                         Program Version 4.2.0 -  RELEASE  -
|  1> ! RI BP86 def2-SVP def2/J D3BJ TIGHTSCF  Opt Grid3 FinalGrid5
|  2> %maxcore 3000
|  3> %geom
|  4> optimizehydrogens true
|  5> end
|  6>
|  7>
|  8> *xyz 0 1
|  9> C	-1.288485	0.776596	-0.000842
| 10> C	-0.213089	-0.121309	0.001671
| 11> C	1.030511	0.551410	-0.000344
| 12> H	-0.347450	-1.211332	0.004957
| 13> C	0.928827	1.966051	-0.004496
| 14> S	-0.742282	2.467245	-0.006141
| 15> S	2.701358	0.050202	0.001070
| 16> C	2.172402	2.638495	-0.006296
| 17> C	3.247663	1.740681	-0.003425
| 18> H	2.306757	3.728579	-0.009356
| 19> H	-2.345498	0.554960	0.000042
| 20> H	4.304679	1.962303	-0.003712
| 21> **                         ****END OF INPUT****
 Total Charge           Charge          ....    0
 Multiplicity           Mult            ....    1
 Number of Electrons    NEL             ....   72
Dispersion correction           -0.027491714
FINAL SINGLE POINT ENERGY     -1027.114452296724
Dispersion correction            ... done
Dispersion correction           -0.027478685
FINAL SINGLE POINT ENERGY     -1027.114804830320
Dispersion correction            ... done
                    ***********************HURRAY********************

CARTESIAN COORDINATES (ANGSTROEM)
---------------------------------
  C     -1.288414    0.776250   -0.000801
  C     -0.212879   -0.121488    0.001713
  C      1.030617    0.551423   -0.000301
  H     -0.346394   -1.211414    0.004967
  C      0.928713    1.966049   -0.004453
  S     -0.742473    2.466983   -0.006099
  S      2.701541    0.050475    0.001114
  C      2.172184    2.638685   -0.006252
  C      3.247584    1.741038   -0.003381
  H      2.305740    3.728614   -0.009346
  H     -2.361799    0.552939   -0.000130
  H      4.320972    1.964327   -0.003901

 Multiplicity           Mult            ....    1
 Number of Electrons    NEL             ....   72
 Basis Dimension        Dim             ....  140

ORBITAL ENERGIES
----------------

  NO   OCC          E(Eh)            E(eV)
   0   2.0000     -88.122223     -2397.9276
   1   2.0000     -88.122206     -2397.9271
   2   2.0000      -9.949578      -270.7418
   3   2.0000      -9.949558      -270.7412
   4   2.0000      -9.946161      -270.6488
   5   2.0000      -9.946020      -270.6450
   6   2.0000      -9.934504      -270.3316
   7   2.0000      -9.934450      -270.3301
   8   2.0000      -7.717898      -210.0147
   9   2.0000      -7.717884      -210.0143
  10   2.0000      -5.745174      -156.3341
  11   2.0000      -5.745165      -156.3339
  12   2.0000      -5.740932      -156.2187
  13   2.0000      -5.740928      -156.2186
  14   2.0000      -5.736673      -156.1028
  15   2.0000      -5.736671      -156.1027
  16   2.0000      -0.823158       -22.3993
  17   2.0000      -0.762064       -20.7368
  18   2.0000      -0.692862       -18.8537
  19   2.0000      -0.642423       -17.4812
  20   2.0000      -0.631298       -17.1785
  21   2.0000      -0.533718       -14.5232
  22   2.0000      -0.510103       -13.8806
  23   2.0000      -0.478831       -13.0297
  24   2.0000      -0.440469       -11.9858
  25   2.0000      -0.416681       -11.3385
  26   2.0000      -0.376355       -10.2412
  27   2.0000      -0.368894       -10.0381
  28   2.0000      -0.351189        -9.5563
  29   2.0000      -0.345909        -9.4127
  30   2.0000      -0.328852        -8.9485
  31   2.0000      -0.304980        -8.2989
  32   2.0000      -0.299456        -8.1486
  33   2.0000      -0.257999        -7.0205
  34   2.0000      -0.210276        -5.7219
  35   2.0000      -0.195118        -5.3094
  36   0.0000      -0.067856        -1.8465
  37   0.0000      -0.011732        -0.3192
  38   0.0000      -0.011251        -0.3061
  39   0.0000       0.002852         0.0776
  40   0.0000       0.029132         0.7927

MULLIKEN ATOMIC CHARGES
-----------------------
   0 C :   -0.129554
   1 C :    0.012352
   2 C :   -0.064831
   3 H :    0.013267
   4 C :   -0.064629
   5 S :    0.113659
   6 S :    0.113686
   7 C :    0.012226
   8 C :   -0.129500
   9 H :    0.013249
  10 H :    0.055050
  11 H :    0.055026
Sum of atomic charges:   -0.0000000

LOEWDIN ATOMIC CHARGES
----------------------
   0 C :   -0.184705
   1 C :   -0.079623
   2 C :   -0.211454
   3 H :    0.040617
   4 C :   -0.211387
   5 S :    0.402461
   6 S :    0.402607
   7 C :   -0.079640
   8 C :   -0.184735
   9 H :    0.040620
  10 H :    0.032618
  11 H :    0.032622

  Mayer bond orders larger than 0.100000
B(  0-C ,  1-C ) :   1.5345 B(  0-C ,  5-S ) :   1.1413 B(  0-C , 10-H ) :   0.9581
B(  1-C ,  2-C ) :   1.2909 B(  1-C ,  3-H ) :   0.9849 B(  2-C ,  4-C ) :   1.3696
B(  2-C ,  6-S ) :   1.0900 B(  4-C ,  5-S ) :   1.0899 B(  4-C ,  7-C ) :   1.2912
B(  6-S ,  8-C ) :   1.1414 B(  7-C ,  8-C ) :   1.5345 B(  7-C ,  9-H ) :   0.9849
B(  8-C , 11-H ) :   0.9581

Dispersion correction           -0.027478778
FINAL SINGLE POINT ENERGY     -1027.114805526247

DIPOLE MOMENT
-------------
                                X             Y             Z
Electronic contribution:     -0.00002       0.00020      -0.00098
Nuclear contribution   :      0.00016      -0.00028       0.00095
                        -----------------------------------------
Total Dipole Moment    :      0.00014      -0.00008      -0.00002
                        -----------------------------------------
Magnitude (a.u.)       :      0.00017
Magnitude (Debye)      :      0.00042

Rotational constants in cm-1:     0.108507     0.043348     0.030974
Rotational constants in MHz :  3252.972871  1299.533003   928.575552

                             ****ORCA TERMINATED NORMALLY****
TOTAL RUN TIME: 0 days 0 hours 0 minutes 35 seconds 584 msec
