                         Program Version 4.2.0 -  RELEASE  -
|  1> ! RI BP86 def2-SVP def2/J D3BJ TIGHTSCF  Opt Grid3 FinalGrid5
|  2> %maxcore 3000
|  3> %geom
|  4> optimizehydrogens true
|  5> end
|  6>
|  7>
|  8> *xyz 0 1
|  9> C	-1.075031	-1.382517	0.041109
| 10> C	-0.004826	-2.288039	0.081482
| 11> C	1.185658	-1.514955	0.073496
| 12> H	-0.071592	-3.378688	0.112699
| 13> C	0.790742	-0.172799	0.029804
| 14> O	-0.569764	-0.106957	0.010741
| 15> H	2.216187	-1.885329	0.097018
| 16> H	-2.154098	-1.425703	0.028899
| 17> H	1.296327	0.781314	0.008564
| 18> **                         ****END OF INPUT****
 Total Charge           Charge          ....    0
 Multiplicity           Mult            ....    1
 Number of Electrons    NEL             ....   36
Dispersion correction           -0.009798892
FINAL SINGLE POINT ENERGY      -229.869121215750
Dispersion correction            ... done
Dispersion correction           -0.009789095
FINAL SINGLE POINT ENERGY      -229.869532341060
Dispersion correction            ... done
Dispersion correction           -0.009787971
FINAL SINGLE POINT ENERGY      -229.869615573070
Dispersion correction            ... done
Dispersion correction           -0.009788473
FINAL SINGLE POINT ENERGY      -229.869664316586
Dispersion correction            ... done
Dispersion correction           -0.009788974
FINAL SINGLE POINT ENERGY      -229.869665930510
Dispersion correction            ... done
                    ***********************HURRAY********************

CARTESIAN COORDINATES (ANGSTROEM)
---------------------------------
  C     -1.075613   -1.375738    0.041000
  C     -0.006320   -2.282336    0.081387
  C      1.184941   -1.510451    0.073383
  H     -0.088357   -3.374959    0.112096
  C      0.791376   -0.167899    0.029666
  O     -0.569063   -0.100688    0.010605
  H      2.215986   -1.881363    0.097088
  H     -2.165464   -1.466593    0.029987
  H      1.326116    0.786354    0.008600

 Multiplicity           Mult            ....    1
 Number of Electrons    NEL             ....   36
 Basis Dimension        Dim             ....   90

ORBITAL ENERGIES
----------------

  NO   OCC          E(Eh)            E(eV)
   0   2.0000     -18.847787      -512.8744
   1   2.0000      -9.963749      -271.1274
   2   2.0000      -9.963362      -271.1169
   3   2.0000      -9.918279      -269.8901
   4   2.0000      -9.917359      -269.8651
   5   2.0000      -1.010974       -27.5100
   6   2.0000      -0.714434       -19.4407
   7   2.0000      -0.669465       -18.2171
   8   2.0000      -0.535172       -14.5628
   9   2.0000      -0.507942       -13.8218
  10   2.0000      -0.482560       -13.1311
  11   2.0000      -0.402514       -10.9530
  12   2.0000      -0.401155       -10.9160
  13   2.0000      -0.358840        -9.7645
  14   2.0000      -0.358316        -9.7503
  15   2.0000      -0.321400        -8.7457
  16   2.0000      -0.250486        -6.8161
  17   2.0000      -0.202512        -5.5106
  18   0.0000      -0.031098        -0.8462
  19   0.0000       0.023612         0.6425
  20   0.0000       0.059751         1.6259
  21   0.0000       0.085241         2.3195
  22   0.0000       0.093250         2.5375

MULLIKEN ATOMIC CHARGES
-----------------------
   0 C :    0.084033
   1 C :   -0.045317
   2 C :   -0.045922
   3 H :    0.018293
   4 C :    0.085923
   5 O :   -0.183713
   6 H :    0.017487
   7 H :    0.035169
   8 H :    0.034047
Sum of atomic charges:    0.0000000

LOEWDIN ATOMIC CHARGES
----------------------
   0 C :    0.012942
   1 C :   -0.084223
   2 C :   -0.086678
   3 H :    0.035629
   4 C :    0.012274
   5 O :    0.018951
   6 H :    0.035551
   7 H :    0.027917
   8 H :    0.027639

  Mayer bond orders larger than 0.100000
B(  0-C ,  1-C ) :   1.5068 B(  0-C ,  4-C ) :   0.1294 B(  0-C ,  5-O ) :   1.1479
B(  0-C ,  7-H ) :   0.9894 B(  1-C ,  2-C ) :   1.2767 B(  1-C ,  3-H ) :   0.9924
B(  2-C ,  4-C ) :   1.5049 B(  2-C ,  6-H ) :   0.9927 B(  4-C ,  5-O ) :   1.1606
B(  4-C ,  8-H ) :   0.9886

Dispersion correction           -0.009789107
FINAL SINGLE POINT ENERGY      -229.869666090799

DIPOLE MOMENT
-------------
                                X             Y             Z
Electronic contribution:     -0.94241       1.45403      -0.05415
Nuclear contribution   :      1.03770      -1.60343       0.05954
                        -----------------------------------------
Total Dipole Moment    :      0.09529      -0.14940       0.00539
                        -----------------------------------------
Magnitude (a.u.)       :      0.17728
Magnitude (Debye)      :      0.45061

Rotational constants in cm-1:     0.310457     0.300515     0.152703
Rotational constants in MHz :  9307.277398  9009.210744  4577.909651

                             ****ORCA TERMINATED NORMALLY****
TOTAL RUN TIME: 0 days 0 hours 0 minutes 40 seconds 54 msec
