                         Program Version 4.2.0 -  RELEASE  -
|  1> ! RI BP86 def2-SVP def2/J D3BJ TIGHTSCF  Opt Grid3 FinalGrid5
|  2> %maxcore 3000
|  3> %geom
|  4> optimizehydrogens true
|  5> end
|  6>
|  7>
|  8> *xyz 0 1
|  9> C	-2.874921	1.958933	-0.010121
| 10> C	-2.941555	0.553058	0.002131
| 11> C	-1.607385	0.038891	0.004624
| 12> C	-0.664039	1.150166	-0.006004
| 13> N	-1.532033	2.317711	-0.015048
| 14> O	0.561319	1.253076	-0.008375
| 15> C	-1.674552	-1.369626	0.017080
| 16> C	-3.885246	-0.563019	0.013138
| 17> N	-3.013098	-1.731935	0.022267
| 18> C	-0.961787	3.644848	-0.026690
| 19> H	0.136811	3.504183	-0.026462
| 20> H	-1.252168	4.225228	0.873686
| 21> H	-1.253631	4.210090	-0.936183
| 22> C	-3.570580	-3.063457	0.034344
| 23> H	-4.670837	-2.934489	0.035655
| 24> H	-3.271382	-3.626727	0.943133
| 25> H	-3.275407	-3.641489	-0.866482
| 26> O	-5.106224	-0.661197	0.015660
| 27> H	-3.690429	2.666976	-0.014890
| 28> H	-0.843777	-2.059691	0.021781
| 29> **                         ****END OF INPUT****
 Total Charge           Charge          ....    0
 Multiplicity           Mult            ....    1
 Number of Electrons    NEL             ....   86
Dispersion correction           -0.033551850
FINAL SINGLE POINT ENERGY      -569.257241340481
Dispersion correction            ... done
Dispersion correction           -0.033532615
FINAL SINGLE POINT ENERGY      -569.257924902136
Dispersion correction            ... done
Dispersion correction           -0.033528384
FINAL SINGLE POINT ENERGY      -569.258111737749
Dispersion correction            ... done
Dispersion correction           -0.033528365
FINAL SINGLE POINT ENERGY      -569.258210612336
Dispersion correction            ... done
Dispersion correction           -0.033529954
FINAL SINGLE POINT ENERGY      -569.258217164316
Dispersion correction            ... done
                    ***********************HURRAY********************

CARTESIAN COORDINATES (ANGSTROEM)
---------------------------------
  C     -2.875678    1.959133   -0.010073
  C     -2.941055    0.553199    0.002153
  C     -1.606426    0.040224    0.004587
  C     -0.664074    1.152343   -0.006053
  N     -1.533111    2.319111   -0.015042
  O      0.561192    1.256348   -0.008466
  C     -1.672333   -1.368352    0.017017
  C     -3.883747   -0.563722    0.013172
  N     -3.010554   -1.731858    0.022246
  C     -0.964052    3.646758   -0.026678
  H      0.135283    3.514947   -0.026739
  H     -1.260172    4.227132    0.871864
  H     -1.262001    4.212134   -0.934143
  C     -3.566846   -3.063878    0.034316
  H     -4.667721   -2.944391    0.035519
  H     -3.262926   -3.626501    0.941508
  H     -3.266548   -3.641380   -0.864697
  O     -5.104637   -0.662991    0.015736
  H     -3.673171    2.712883   -0.015417
  H     -0.872344   -2.119609    0.022432

 Multiplicity           Mult            ....    1
 Number of Electrons    NEL             ....   86
 Basis Dimension        Dim             ....  208

ORBITAL ENERGIES
----------------

  NO   OCC          E(Eh)            E(eV)
   0   2.0000     -18.761983      -510.5395
   1   2.0000     -18.760437      -510.4975
   2   2.0000     -14.072994      -382.9456
   3   2.0000     -14.072280      -382.9262
   4   2.0000     -10.016001      -272.5492
   5   2.0000     -10.014736      -272.5148
   6   2.0000      -9.985479      -271.7187
   7   2.0000      -9.985154      -271.7099
   8   2.0000      -9.961198      -271.0580
   9   2.0000      -9.960090      -271.0278
  10   2.0000      -9.921655      -269.9820
  11   2.0000      -9.921498      -269.9777
  12   2.0000      -0.950569       -25.8663
  13   2.0000      -0.945223       -25.7208
  14   2.0000      -0.886251       -24.1161
  15   2.0000      -0.877071       -23.8663
  16   2.0000      -0.757871       -20.6227
  17   2.0000      -0.693784       -18.8788
  18   2.0000      -0.655926       -17.8487
  19   2.0000      -0.627178       -17.0664
  20   2.0000      -0.611577       -16.6419
  21   2.0000      -0.534765       -14.5517
  22   2.0000      -0.533262       -14.5108
  23   2.0000      -0.479547       -13.0492
  24   2.0000      -0.454433       -12.3658
  25   2.0000      -0.449467       -12.2306
  26   2.0000      -0.442709       -12.0467
  27   2.0000      -0.435977       -11.8635
  28   2.0000      -0.423364       -11.5203
  29   2.0000      -0.393995       -10.7212
  30   2.0000      -0.381885       -10.3916
  31   2.0000      -0.376612       -10.2481
  32   2.0000      -0.374098       -10.1797
  33   2.0000      -0.356558        -9.7024
  34   2.0000      -0.355648        -9.6777
  35   2.0000      -0.352324        -9.5872
  36   2.0000      -0.343715        -9.3530
  37   2.0000      -0.300063        -8.1651
  38   2.0000      -0.298559        -8.1242
  39   2.0000      -0.233103        -6.3431
  40   2.0000      -0.224596        -6.1116
  41   2.0000      -0.222144        -6.0449
  42   2.0000      -0.184236        -5.0133
  43   0.0000      -0.116452        -3.1688
  44   0.0000      -0.043854        -1.1933
  45   0.0000       0.036524         0.9939
  46   0.0000       0.044203         1.2028
  47   0.0000       0.047282         1.2866

MULLIKEN ATOMIC CHARGES
-----------------------
   0 C :    0.069979
   1 C :   -0.048227
   2 C :   -0.048835
   3 C :    0.155092
   4 N :   -0.273359
   5 O :   -0.174859
   6 C :    0.071696
   7 C :    0.155442
   8 N :   -0.272908
   9 C :    0.050861
  10 H :    0.071814
  11 H :    0.052388
  12 H :    0.052362
  13 C :    0.051076
  14 H :    0.071256
  15 H :    0.052849
  16 H :    0.052895
  17 O :   -0.168253
  18 H :    0.039281
  19 H :    0.039449
Sum of atomic charges:    0.0000000

LOEWDIN ATOMIC CHARGES
----------------------
   0 C :    0.077885
   1 C :   -0.125394
   2 C :   -0.125544
   3 C :    0.061039
   4 N :   -0.001427
   5 O :   -0.172115
   6 C :    0.078286
   7 C :    0.061140
   8 N :   -0.001775
   9 C :    0.008093
  10 H :    0.043464
  11 H :    0.032968
  12 H :    0.032970
  13 C :    0.008283
  14 H :    0.043546
  15 H :    0.033263
  16 H :    0.033260
  17 O :   -0.166470
  18 H :    0.039234
  19 H :    0.039293

  Mayer bond orders larger than 0.100000
B(  0-C ,  1-C ) :   1.3938 B(  0-C ,  4-N ) :   1.2056 B(  0-C ,  6-C ) :   0.1049
B(  0-C , 18-H ) :   0.9763 B(  1-C ,  2-C ) :   1.2561 B(  1-C ,  7-C ) :   1.0048
B(  2-C ,  3-C ) :   1.0090 B(  2-C ,  6-C ) :   1.3900 B(  3-C ,  4-N ) :   0.9634
B(  3-C ,  5-O ) :   2.0906 B(  4-N ,  9-C ) :   0.9796 B(  6-C ,  8-N ) :   1.2098
B(  6-C , 19-H ) :   0.9759 B(  7-C ,  8-N ) :   0.9583 B(  7-C , 17-O ) :   2.1000
B(  8-N , 13-C ) :   0.9799 B(  9-C , 10-H ) :   0.9434 B(  9-C , 11-H ) :   0.9668
B(  9-C , 12-H ) :   0.9668 B( 13-C , 14-H ) :   0.9445 B( 13-C , 15-H ) :   0.9666
B( 13-C , 16-H ) :   0.9667

Dispersion correction           -0.033530594
FINAL SINGLE POINT ENERGY      -569.258217740066

DIPOLE MOMENT
-------------
                                X             Y             Z
Electronic contribution:     -0.06017      -0.00147      -0.00115
Nuclear contribution   :      0.03978      -0.02040       0.00151
                        -----------------------------------------
Total Dipole Moment    :     -0.02039      -0.02187       0.00035
                        -----------------------------------------
Magnitude (a.u.)       :      0.02990
Magnitude (Debye)      :      0.07599

Rotational constants in cm-1:     0.073484     0.021424     0.016696
Rotational constants in MHz :  2202.990787   642.289608   500.539326

                             ****ORCA TERMINATED NORMALLY****
TOTAL RUN TIME: 0 days 0 hours 3 minutes 29 seconds 752 msec
