                         Program Version 4.2.0 -  RELEASE  -
|  1> ! RI BP86 def2-SVP def2/J D3BJ TIGHTSCF  Opt Grid3 FinalGrid5
|  2> %maxcore 3000
|  3> %geom
|  4> optimizehydrogens true
|  5> end
|  6>
|  7>
|  8> *xyz 0 1
|  9> C	-0.276812	-0.975442	0.011305
| 10> C	0.125377	0.368503	-0.001232
| 11> C	1.529723	0.519760	-0.003969
| 12> H	-0.612578	1.185467	-0.007775
| 13> C	2.208917	-0.707593	0.006357
| 14> H	2.076086	1.475542	-0.013439
| 15> S	1.097568	-2.063772	0.019122
| 16> H	-1.294495	-1.336965	0.016073
| 17> H	3.280200	-0.844535	0.006823
| 18> **                         ****END OF INPUT****
 Total Charge           Charge          ....    0
 Multiplicity           Mult            ....    1
 Number of Electrons    NEL             ....   44
Dispersion correction           -0.013904180
FINAL SINGLE POINT ENERGY      -552.827323424257
Dispersion correction            ... done
Dispersion correction           -0.013893100
FINAL SINGLE POINT ENERGY      -552.827860803463
Dispersion correction            ... done
Dispersion correction           -0.013891538
FINAL SINGLE POINT ENERGY      -552.827967065734
Dispersion correction            ... done
Dispersion correction           -0.013891362
FINAL SINGLE POINT ENERGY      -552.828049932523
Dispersion correction            ... done
Dispersion correction           -0.013892053
FINAL SINGLE POINT ENERGY      -552.828053273593
Dispersion correction            ... done
                    ***********************HURRAY********************

CARTESIAN COORDINATES (ANGSTROEM)
---------------------------------
  C     -0.277610   -0.968495    0.011453
  C      0.124530    0.375463   -0.001311
  C      1.528870    0.526770   -0.004123
  H     -0.593491    1.207348   -0.008049
  C      2.208109   -0.700556    0.006371
  H      2.053131    1.492422   -0.013344
  S      1.096810   -2.056774    0.019391
  H     -1.296452   -1.374658    0.016111
  H      3.290086   -0.880555    0.006766

 Multiplicity           Mult            ....    1
 Number of Electrons    NEL             ....   44
 Basis Dimension        Dim             ....   94

ORBITAL ENERGIES
----------------

  NO   OCC          E(Eh)            E(eV)
   0   2.0000     -88.120442     -2397.8791
   1   2.0000      -9.941740      -270.5285
   2   2.0000      -9.941711      -270.5277
   3   2.0000      -9.922942      -270.0170
   4   2.0000      -9.922806      -270.0133
   5   2.0000      -7.716291      -209.9710
   6   2.0000      -5.743192      -156.2802
   7   2.0000      -5.738810      -156.1610
   8   2.0000      -5.736071      -156.0864
   9   2.0000      -0.793510       -21.5925
  10   2.0000      -0.665866       -18.1191
  11   2.0000      -0.641771       -17.4635
  12   2.0000      -0.505860       -13.7652
  13   2.0000      -0.493433       -13.4270
  14   2.0000      -0.460974       -12.5438
  15   2.0000      -0.363500        -9.8913
  16   2.0000      -0.353953        -9.6316
  17   2.0000      -0.346328        -9.4241
  18   2.0000      -0.337458        -9.1827
  19   2.0000      -0.312822        -8.5123
  20   2.0000      -0.230644        -6.2761
  21   2.0000      -0.209158        -5.6915
  22   0.0000      -0.053483        -1.4553
  23   0.0000       0.004807         0.1308
  24   0.0000       0.019102         0.5198
  25   0.0000       0.049874         1.3571
  26   0.0000       0.068532         1.8648

MULLIKEN ATOMIC CHARGES
-----------------------
   0 C :   -0.135373
   1 C :    0.015578
   2 C :    0.017669
   3 H :    0.017724
   4 C :   -0.136643
   5 H :    0.017039
   6 S :    0.094972
   7 H :    0.054379
   8 H :    0.054656
Sum of atomic charges:   -0.0000000

LOEWDIN ATOMIC CHARGES
----------------------
   0 C :   -0.200273
   1 C :   -0.075254
   2 C :   -0.074813
   3 H :    0.036994
   4 C :   -0.200573
   5 H :    0.036937
   6 S :    0.415922
   7 H :    0.030514
   8 H :    0.030546

  Mayer bond orders larger than 0.100000
B(  0-C ,  1-C ) :   1.5328 B(  0-C ,  4-C ) :   0.1130 B(  0-C ,  6-S ) :   1.1849
B(  0-C ,  7-H ) :   0.9621 B(  1-C ,  2-C ) :   1.3038 B(  1-C ,  3-H ) :   0.9815
B(  2-C ,  4-C ) :   1.5326 B(  2-C ,  5-H ) :   0.9818 B(  4-C ,  6-S ) :   1.1844
B(  4-C ,  8-H ) :   0.9622

Dispersion correction           -0.013892272
FINAL SINGLE POINT ENERGY      -552.828053445207

DIPOLE MOMENT
-------------
                                X             Y             Z
Electronic contribution:      0.39066      -3.62863       0.03177
Nuclear contribution   :     -0.40751       3.78285      -0.03334
                        -----------------------------------------
Total Dipole Moment    :     -0.01684       0.15422      -0.00156
                        -----------------------------------------
Magnitude (a.u.)       :      0.15515
Magnitude (Debye)      :      0.39435

Rotational constants in cm-1:     0.264159     0.171514     0.103993
Rotational constants in MHz :  7919.299157  5141.851458  3117.631969

                             ****ORCA TERMINATED NORMALLY****
TOTAL RUN TIME: 0 days 0 hours 1 minutes 15 seconds 991 msec
