                         Program Version 4.2.0 -  RELEASE  -
|  1> ! RI BP86 def2-SVP def2/J D3BJ TIGHTSCF  Opt Grid3 FinalGrid5
|  2> %maxcore 3000
|  3> %geom
|  4> optimizehydrogens true
|  5> end
|  6>
|  7>
|  8> *xyz 0 1
|  9> C	0.278224	-0.507433	0.004778
| 10> C	1.144681	-1.607236	0.014331
| 11> C	2.463891	-1.084449	0.009599
| 12> H	0.974919	-2.220524	-0.878027
| 13> C	2.344737	0.312181	-0.002922
| 14> H	3.001893	-1.417453	-0.885429
| 15> O	1.011816	0.640316	-0.005554
| 16> H	0.975208	-2.204565	0.917505
| 17> H	3.002189	-1.401490	0.910229
| 18> H	-0.345799	-0.448073	-0.891958
| 19> H	2.749531	0.783259	-0.903151
| 20> H	-0.345612	-0.432126	0.900446
| 21> H	2.749879	0.799257	0.888595
| 22> **                         ****END OF INPUT****
 Total Charge           Charge          ....    0
 Multiplicity           Mult            ....    1
 Number of Electrons    NEL             ....   40
Dispersion correction           -0.013858637
FINAL SINGLE POINT ENERGY      -232.231079091678
Dispersion correction            ... done
Dispersion correction           -0.013770834
FINAL SINGLE POINT ENERGY      -232.237804625747
Dispersion correction            ... done
Dispersion correction           -0.013706670
FINAL SINGLE POINT ENERGY      -232.240176632800
Dispersion correction            ... done
Dispersion correction           -0.013694054
FINAL SINGLE POINT ENERGY      -232.240358846080
Dispersion correction            ... done
Dispersion correction           -0.013691873
FINAL SINGLE POINT ENERGY      -232.240385853983
Dispersion correction            ... done
                    ***********************HURRAY********************

CARTESIAN COORDINATES (ANGSTROEM)
---------------------------------
  C      0.268758   -0.482197    0.004554
  C      1.134869   -1.582273    0.014109
  C      2.454243   -1.059902    0.009381
  H      0.953136   -2.258424   -0.849771
  C      2.335529    0.336766   -0.003141
  H      3.044746   -1.430128   -0.856992
  O      1.002712    0.665321   -0.005776
  H      0.953326   -2.243161    0.889737
  H      3.044797   -1.414545    0.882211
  H     -0.428170   -0.486507   -0.875359
  H      2.834484    0.810890   -0.888422
  H     -0.427785   -0.470924    0.884704
  H      2.834911    0.826748    0.873207

 Multiplicity           Mult            ....    1
 Number of Electrons    NEL             ....   40
 Basis Dimension        Dim             ....  110

ORBITAL ENERGIES
----------------

  NO   OCC          E(Eh)            E(eV)
   0   2.0000     -18.764904      -510.6190
   1   2.0000      -9.941532      -270.5228
   2   2.0000      -9.940365      -270.4911
   3   2.0000      -9.901731      -269.4398
   4   2.0000      -9.901280      -269.4275
   5   2.0000      -0.973269       -26.4840
   6   2.0000      -0.740863       -20.1599
   7   2.0000      -0.684718       -18.6321
   8   2.0000      -0.540857       -14.7175
   9   2.0000      -0.529481       -14.4079
  10   2.0000      -0.468703       -12.7541
  11   2.0000      -0.467058       -12.7093
  12   2.0000      -0.386247       -10.5103
  13   2.0000      -0.378815       -10.3081
  14   2.0000      -0.357621        -9.7314
  15   2.0000      -0.337259        -9.1773
  16   2.0000      -0.325284        -8.8514
  17   2.0000      -0.279694        -7.6109
  18   2.0000      -0.255547        -6.9538
  19   2.0000      -0.189526        -5.1573
  20   0.0000       0.021146         0.5754
  21   0.0000       0.027893         0.7590
  22   0.0000       0.074280         2.0212
  23   0.0000       0.088543         2.4094
  24   0.0000       0.094851         2.5810

MULLIKEN ATOMIC CHARGES
-----------------------
   0 C :    0.176046
   1 C :   -0.051189
   2 C :   -0.051134
   3 H :    0.019957
   4 C :    0.176204
   5 H :    0.019995
   6 O :   -0.322033
   7 H :    0.019875
   8 H :    0.020008
   9 H :   -0.003208
  10 H :   -0.000668
  11 H :   -0.003182
  12 H :   -0.000671
Sum of atomic charges:    0.0000000

LOEWDIN ATOMIC CHARGES
----------------------
   0 C :    0.034717
   1 C :   -0.069858
   2 C :   -0.069683
   3 H :    0.036637
   4 C :    0.039993
   5 H :    0.036719
   6 O :   -0.118328
   7 H :    0.036628
   8 H :    0.036710
   9 H :    0.008508
  10 H :    0.009720
  11 H :    0.008508
  12 H :    0.009729

  Mayer bond orders larger than 0.100000
B(  0-C ,  1-C ) :   1.1684 B(  0-C ,  6-O ) :   1.0547 B(  0-C ,  9-H ) :   0.9225
B(  0-C , 11-H ) :   0.9225 B(  1-C ,  2-C ) :   1.1901 B(  1-C ,  3-H ) :   0.9054
B(  1-C ,  7-H ) :   0.9054 B(  2-C ,  4-C ) :   1.1696 B(  2-C ,  5-H ) :   0.9054
B(  2-C ,  8-H ) :   0.9055 B(  4-C ,  6-O ) :   1.0444 B(  4-C , 10-H ) :   0.9242
B(  4-C , 12-H ) :   0.9242

Dispersion correction           -0.013691636
FINAL SINGLE POINT ENERGY      -232.240389573024

DIPOLE MOMENT
-------------
                                X             Y             Z
Electronic contribution:     -0.97982       2.51684      -0.02197
Nuclear contribution   :      1.25445      -3.16154       0.02777
                        -----------------------------------------
Total Dipole Moment    :      0.27463      -0.64470       0.00580
                        -----------------------------------------
Magnitude (a.u.)       :      0.70078
Magnitude (Debye)      :      1.78124

Rotational constants in cm-1:     0.259640     0.257433     0.142789
Rotational constants in MHz :  7783.807197  7717.660984  4280.712133

                             ****ORCA TERMINATED NORMALLY****
TOTAL RUN TIME: 0 days 0 hours 1 minutes 28 seconds 601 msec
