                         Program Version 4.2.0 -  RELEASE  -
|  1> ! RI BP86 def2-SVP def2/J D3BJ TIGHTSCF  Opt Grid3 FinalGrid5
|  2> %maxcore 3000
|  3> %geom
|  4> optimizehydrogens true
|  5> end
|  6>
|  7>
|  8> *xyz 0 1
|  9> C	-1.739913	1.811814	-0.011867
| 10> C	-1.805290	0.405880	0.000359
| 11> C	-0.470661	-0.107095	0.002793
| 12> C	0.471691	1.005024	-0.007847
| 13> N	-0.397346	2.171792	-0.016836
| 14> O	1.696957	1.109029	-0.010260
| 15> C	-0.536568	-1.515671	0.015223
| 16> C	-2.747982	-0.711041	0.011378
| 17> N	-1.874789	-1.879177	0.020452
| 18> C	0.171713	3.499439	-0.028472
| 19> H	1.271048	3.367628	-0.028533
| 20> H	-0.124407	4.079813	0.870070
| 21> H	-0.126236	4.064815	-0.935937
| 22> C	-2.431081	-3.211197	0.032522
| 23> H	-3.531956	-3.091710	0.033725
| 24> H	-2.127161	-3.773820	0.939714
| 25> H	-2.130783	-3.788699	-0.866491
| 26> O	-3.968872	-0.810310	0.013942
| 27> H	-2.196509	2.251395	0.883938
| 28> H	-2.198163	2.236899	-0.913802
| 29> H	-0.076933	-1.939264	0.917286
| 30> H	-0.078493	-1.953884	-0.880629
| 31> **                         ****END OF INPUT****
 Total Charge           Charge          ....    0
 Multiplicity           Mult            ....    1
 Number of Electrons    NEL             ....   88
Dispersion correction           -0.036088708
FINAL SINGLE POINT ENERGY      -570.443204384159
Dispersion correction            ... done
Dispersion correction           -0.036011124
FINAL SINGLE POINT ENERGY      -570.447370375753
Dispersion correction            ... done
Dispersion correction           -0.035955694
FINAL SINGLE POINT ENERGY      -570.448929417424
Dispersion correction            ... done
Dispersion correction           -0.035947472
FINAL SINGLE POINT ENERGY      -570.449043154644
Dispersion correction            ... done
Dispersion correction           -0.035947639
FINAL SINGLE POINT ENERGY      -570.449054330886
Dispersion correction            ... done
                    ***********************HURRAY********************

CARTESIAN COORDINATES (ANGSTROEM)
---------------------------------
  C     -1.732231    1.814563   -0.011899
  C     -1.804201    0.408951    0.000324
  C     -0.471992   -0.110277    0.002842
  C      0.475565    0.997411   -0.007741
  N     -0.387990    2.168241   -0.016786
  O      1.701306    1.095670   -0.010078
  C     -0.544504   -1.518528    0.015270
  C     -2.752120   -0.703538    0.011286
  N     -1.884415   -1.875755    0.020416
  C      0.187288    3.493205   -0.028388
  H      1.285934    3.355391   -0.028426
  H     -0.106850    4.081149    0.869032
  H     -0.108744    4.066204   -0.934804
  C     -2.446947   -3.205152    0.032453
  H     -3.547202   -3.079731    0.033241
  H     -2.144954   -3.775370    0.938734
  H     -2.147986   -3.790458   -0.865181
  O     -3.973462   -0.797081    0.013775
  H     -2.285706    2.255806    0.861199
  H     -2.288175    2.240781   -0.890871
  H      0.014180   -1.942277    0.893996
  H      0.011471   -1.957547   -0.857665

 Multiplicity           Mult            ....    1
 Number of Electrons    NEL             ....   88
 Basis Dimension        Dim             ....  218

ORBITAL ENERGIES
----------------

  NO   OCC          E(Eh)            E(eV)
   0   2.0000     -18.753791      -510.3166
   1   2.0000     -18.752864      -510.2914
   2   2.0000     -14.049119      -382.2960
   3   2.0000     -14.048989      -382.2924
   4   2.0000     -10.015544      -272.5368
   5   2.0000     -10.014879      -272.5187
   6   2.0000      -9.971723      -271.3444
   7   2.0000      -9.971279      -271.3323
   8   2.0000      -9.954331      -270.8711
   9   2.0000      -9.953749      -270.8553
  10   2.0000      -9.944466      -270.6027
  11   2.0000      -9.944371      -270.6001
  12   2.0000      -0.945640       -25.7322
  13   2.0000      -0.939131       -25.5551
  14   2.0000      -0.884091       -24.0574
  15   2.0000      -0.871851       -23.7243
  16   2.0000      -0.761629       -20.7250
  17   2.0000      -0.701358       -19.0849
  18   2.0000      -0.666877       -18.1467
  19   2.0000      -0.640841       -17.4382
  20   2.0000      -0.610046       -16.6002
  21   2.0000      -0.536581       -14.6011
  22   2.0000      -0.532433       -14.4882
  23   2.0000      -0.486617       -13.2415
  24   2.0000      -0.463375       -12.6091
  25   2.0000      -0.453271       -12.3341
  26   2.0000      -0.449451       -12.2302
  27   2.0000      -0.438811       -11.9407
  28   2.0000      -0.434314       -11.8183
  29   2.0000      -0.387898       -10.5552
  30   2.0000      -0.381957       -10.3936
  31   2.0000      -0.380873       -10.3641
  32   2.0000      -0.376867       -10.2551
  33   2.0000      -0.368296       -10.0218
  34   2.0000      -0.349457        -9.5092
  35   2.0000      -0.348332        -9.4786
  36   2.0000      -0.348071        -9.4715
  37   2.0000      -0.342607        -9.3228
  38   2.0000      -0.341057        -9.2806
  39   2.0000      -0.240453        -6.5430
  40   2.0000      -0.227525        -6.1913
  41   2.0000      -0.217933        -5.9303
  42   2.0000      -0.215089        -5.8529
  43   2.0000      -0.211061        -5.7433
  44   0.0000      -0.106065        -2.8862
  45   0.0000      -0.002689        -0.0732
  46   0.0000       0.033376         0.9082
  47   0.0000       0.033832         0.9206
  48   0.0000       0.035969         0.9788

MULLIKEN ATOMIC CHARGES
-----------------------
   0 C :    0.272886
   1 C :   -0.203084
   2 C :   -0.201368
   3 C :    0.155130
   4 N :   -0.345159
   5 O :   -0.188842
   6 C :    0.273038
   7 C :    0.155285
   8 N :   -0.344931
   9 C :    0.062434
  10 H :    0.068840
  11 H :    0.040653
  12 H :    0.040630
  13 C :    0.062957
  14 H :    0.068064
  15 H :    0.040721
  16 H :    0.040755
  17 O :   -0.182851
  18 H :    0.046546
  19 H :    0.046586
  20 H :    0.045872
  21 H :    0.045838
Sum of atomic charges:    0.0000000

LOEWDIN ATOMIC CHARGES
----------------------
   0 C :    0.022765
   1 C :   -0.049850
   2 C :   -0.049294
   3 C :    0.051926
   4 N :   -0.044768
   5 O :   -0.193044
   6 C :    0.021908
   7 C :    0.051291
   8 N :   -0.045812
   9 C :    0.009272
  10 H :    0.042439
  11 H :    0.026878
  12 H :    0.026884
  13 C :    0.009506
  14 H :    0.042411
  15 H :    0.026970
  16 H :    0.026963
  17 O :   -0.188096
  18 H :    0.053159
  19 H :    0.053167
  20 H :    0.052664
  21 H :    0.052660

  Mayer bond orders larger than 0.100000
B(  0-C ,  1-C ) :   1.0878 B(  0-C ,  4-N ) :   1.0296 B(  0-C , 18-H ) :   0.8554
B(  0-C , 19-H ) :   0.8554 B(  1-C ,  2-C ) :   1.6745 B(  1-C ,  7-C ) :   0.9639
B(  2-C ,  3-C ) :   0.9675 B(  2-C ,  6-C ) :   1.0845 B(  3-C ,  4-N ) :   1.0443
B(  3-C ,  5-O ) :   2.1035 B(  4-N ,  5-O ) :   0.1059 B(  4-N ,  9-C ) :   0.9964
B(  6-C ,  8-N ) :   1.0325 B(  6-C , 20-H ) :   0.8555 B(  6-C , 21-H ) :   0.8554
B(  7-C ,  8-N ) :   1.0408 B(  7-C , 17-O ) :   2.1113 B(  8-N , 13-C ) :   0.9972
B(  8-N , 17-O ) :   0.1061 B(  9-C , 10-H ) :   0.9437 B(  9-C , 11-H ) :   0.9645
B(  9-C , 12-H ) :   0.9645 B( 13-C , 14-H ) :   0.9449 B( 13-C , 15-H ) :   0.9643
B( 13-C , 16-H ) :   0.9643

Dispersion correction           -0.035947725
FINAL SINGLE POINT ENERGY      -570.449056321502

DIPOLE MOMENT
-------------
                                X             Y             Z
Electronic contribution:     -0.05486       0.01387      -0.00112
Nuclear contribution   :      0.03821      -0.01748       0.00117
                        -----------------------------------------
Total Dipole Moment    :     -0.01665      -0.00361       0.00005
                        -----------------------------------------
Magnitude (a.u.)       :      0.01704
Magnitude (Debye)      :      0.04330

Rotational constants in cm-1:     0.070742     0.021294     0.016572
Rotational constants in MHz :  2120.798066   638.367662   496.822534

                             ****ORCA TERMINATED NORMALLY****
TOTAL RUN TIME: 0 days 0 hours 3 minutes 6 seconds 543 msec
