                         Program Version 4.2.0 -  RELEASE  -
|  1> ! RI BP86 def2-SVP def2/J D3BJ TIGHTSCF  Opt Grid3 FinalGrid5
|  2> %maxcore 3000
|  3> %geom
|  4> optimizehydrogens true
|  5> end
|  6>
|  7>
|  8> *xyz 0 1
|  9> C	-0.761255	-0.541494	0.007013
| 10> C	-0.359115	0.802464	-0.005751
| 11> C	1.045225	0.953771	-0.008563
| 12> H	-0.770003	1.287726	0.890532
| 13> C	1.724464	-0.273555	0.001931
| 14> H	1.346873	1.515729	0.886217
| 15> S	0.613165	-1.629773	0.014951
| 16> H	-0.771906	1.271501	-0.909764
| 17> H	1.344985	1.499564	-0.913921
| 18> H	-1.344747	-0.766394	0.908116
| 19> H	2.346077	-0.368717	0.900605
| 20> H	-1.346531	-0.782525	-0.888747
| 21> H	2.344044	-0.384879	-0.896290
| 22> **                         ****END OF INPUT****
 Total Charge           Charge          ....    0
 Multiplicity           Mult            ....    1
 Number of Electrons    NEL             ....   48
Dispersion correction           -0.018503336
FINAL SINGLE POINT ENERGY      -555.187454228870
Dispersion correction            ... done
Dispersion correction           -0.018407193
FINAL SINGLE POINT ENERGY      -555.191794572521
Dispersion correction            ... done
Dispersion correction           -0.018308384
FINAL SINGLE POINT ENERGY      -555.194019816711
Dispersion correction            ... done
Dispersion correction           -0.018297955
FINAL SINGLE POINT ENERGY      -555.194086355612
Dispersion correction            ... done
Dispersion correction           -0.018298556
FINAL SINGLE POINT ENERGY      -555.194090376559
Dispersion correction            ... done
                    ***********************HURRAY********************

CARTESIAN COORDINATES (ANGSTROEM)
---------------------------------
  C     -0.759739   -0.555457    0.007018
  C     -0.357606    0.788504   -0.005606
  C      1.046733    0.939819   -0.008417
  H     -0.812091    1.327378    0.855672
  C      1.725978   -0.287505    0.001937
  H      1.379417    1.563361    0.851353
  S      0.614687   -1.643730    0.014823
  H     -0.813827    1.311618   -0.875649
  H      1.377610    1.547756   -0.879979
  H     -1.404476   -0.799851    0.882400
  H      2.411428   -0.388696    0.874682
  H     -1.406923   -0.815566   -0.861991
  H      2.410084   -0.404213   -0.869914

 Multiplicity           Mult            ....    1
 Number of Electrons    NEL             ....   48
 Basis Dimension        Dim             ....  114

ORBITAL ENERGIES
----------------

  NO   OCC          E(Eh)            E(eV)
   0   2.0000     -88.055355     -2396.1080
   1   2.0000      -9.920663      -269.9550
   2   2.0000      -9.920622      -269.9539
   3   2.0000      -9.905913      -269.5536
   4   2.0000      -9.905743      -269.5490
   5   2.0000      -7.655859      -208.3265
   6   2.0000      -5.684449      -154.6817
   7   2.0000      -5.679679      -154.5519
   8   2.0000      -5.671269      -154.3231
   9   2.0000      -0.805645       -21.9227
  10   2.0000      -0.677596       -18.4383
  11   2.0000      -0.671673       -18.2772
  12   2.0000      -0.519214       -14.1285
  13   2.0000      -0.510314       -13.8863
  14   2.0000      -0.455292       -12.3891
  15   2.0000      -0.451441       -12.2843
  16   2.0000      -0.385547       -10.4913
  17   2.0000      -0.342998        -9.3334
  18   2.0000      -0.334913        -9.1134
  19   2.0000      -0.333020        -9.0619
  20   2.0000      -0.324532        -8.8310
  21   2.0000      -0.276384        -7.5208
  22   2.0000      -0.254065        -6.9135
  23   2.0000      -0.167750        -4.5647
  24   0.0000       0.018265         0.4970
  25   0.0000       0.019718         0.5366
  26   0.0000       0.023795         0.6475
  27   0.0000       0.069549         1.8925
  28   0.0000       0.081222         2.2102

MULLIKEN ATOMIC CHARGES
-----------------------
   0 C :   -0.092779
   1 C :    0.006795
   2 C :    0.011243
   3 H :    0.021376
   4 C :   -0.096352
   5 H :    0.021014
   6 S :   -0.124536
   7 H :    0.021383
   8 H :    0.021003
   9 H :    0.052467
  10 H :    0.052971
  11 H :    0.052446
  12 H :    0.052968
Sum of atomic charges:    0.0000000

LOEWDIN ATOMIC CHARGES
----------------------
   0 C :   -0.162481
   1 C :   -0.073358
   2 C :   -0.073074
   3 H :    0.037917
   4 C :   -0.162866
   5 H :    0.037853
   6 S :    0.222213
   7 H :    0.037914
   8 H :    0.037857
   9 H :    0.024461
  10 H :    0.024537
  11 H :    0.024472
  12 H :    0.024554

  Mayer bond orders larger than 0.100000
B(  0-C ,  1-C ) :   1.1207 B(  0-C ,  6-S ) :   1.0183 B(  0-C ,  9-H ) :   0.9313
B(  0-C , 11-H ) :   0.9313 B(  1-C ,  2-C ) :   1.1581 B(  1-C ,  3-H ) :   0.9169
B(  1-C ,  7-H ) :   0.9170 B(  2-C ,  4-C ) :   1.1202 B(  2-C ,  5-H ) :   0.9169
B(  2-C ,  8-H ) :   0.9169 B(  4-C ,  6-S ) :   1.0192 B(  4-C , 10-H ) :   0.9313
B(  4-C , 12-H ) :   0.9313

Dispersion correction           -0.018299222
FINAL SINGLE POINT ENERGY      -555.194091235882

DIPOLE MOMENT
-------------
                                X             Y             Z
Electronic contribution:      0.61418      -5.70721       0.04905
Nuclear contribution   :     -0.69638       6.46406      -0.05554
                        -----------------------------------------
Total Dipole Moment    :     -0.08220       0.75685      -0.00649
                        -----------------------------------------
Magnitude (a.u.)       :      0.76133
Magnitude (Debye)      :      1.93514

Rotational constants in cm-1:     0.223699     0.154778     0.097956
Rotational constants in MHz :  6706.326628  4640.120975  2936.637438

                             ****ORCA TERMINATED NORMALLY****
TOTAL RUN TIME: 0 days 0 hours 1 minutes 13 seconds 859 msec
