                         Program Version 4.2.0 -  RELEASE  -
|  1> ! RI BP86 def2-SVP def2/J D3BJ TIGHTSCF  Opt Grid3 FinalGrid5
|  2> %maxcore 3000
|  3> %geom
|  4> optimizehydrogens true
|  5> end
|  6>
|  7>
|  8> *xyz 0 1
|  9> C	-2.564469	0.419883	-0.036996
| 10> C	-1.674264	-0.668830	0.006847
| 11> N	-1.804855	1.584548	-0.063035
| 12> C	-0.338131	-0.158830	0.007240
| 13> C	-0.380049	1.297260	-0.037815
| 14> C	-2.269124	2.951625	-0.110075
| 15> H	-2.861340	3.151576	-1.027199
| 16> H	-1.363275	3.588272	-0.117722
| 17> H	-2.884428	3.205720	0.777982
| 18> C	-1.629714	-2.129499	0.050959
| 19> N	-0.199733	-2.415178	0.075993
| 20> C	0.553014	-1.251581	0.050901
| 21> O	0.462225	2.194947	-0.054494
| 22> O	-2.471861	-3.018616	0.067340
| 23> C	0.278182	-3.776589	0.124333
| 24> H	-0.619770	-4.424577	0.131854
| 25> H	0.871486	-3.969936	1.042159
| 26> H	0.896465	-4.025108	-0.763213
| 27> H	-3.204475	0.456876	0.853473
| 28> H	-3.182618	0.415694	-0.943519
| 29> H	1.171359	-1.245176	0.957467
| 30> H	1.193114	-1.286343	-0.839783
| 31> **                         ****END OF INPUT****
 Total Charge           Charge          ....    0
 Multiplicity           Mult            ....    1
 Number of Electrons    NEL             ....   88
Dispersion correction           -0.036088514
FINAL SINGLE POINT ENERGY      -570.443154094457
Dispersion correction            ... done
Dispersion correction           -0.036010894
FINAL SINGLE POINT ENERGY      -570.447337562023
Dispersion correction            ... done
Dispersion correction           -0.035955685
FINAL SINGLE POINT ENERGY      -570.448901677117
Dispersion correction            ... done
Dispersion correction           -0.035947429
FINAL SINGLE POINT ENERGY      -570.449019054348
Dispersion correction            ... done
Dispersion correction           -0.035947570
FINAL SINGLE POINT ENERGY      -570.449031155852
Dispersion correction            ... done
                    ***********************HURRAY********************

CARTESIAN COORDINATES (ANGSTROEM)
---------------------------------
  C     -2.560610    0.427004   -0.037391
  C     -1.675525   -0.665875    0.006483
  N     -1.795544    1.588109   -0.062799
  C     -0.337021   -0.162132    0.007542
  C     -0.372108    1.294151   -0.037109
  C     -2.253394    2.957357   -0.109625
  H     -2.849555    3.164332   -1.025693
  H     -1.344016    3.589034   -0.117278
  H     -2.872043    3.218392    0.777301
  C     -1.637827   -2.126749    0.050191
  N     -0.209208   -2.419123    0.075698
  C      0.548984   -1.259054    0.051234
  O      0.474363    2.187892   -0.053201
  O     -2.484131   -3.011921    0.065988
  C      0.262313   -3.782769    0.123831
  H     -0.639172   -4.425898    0.131409
  H      0.859965   -3.982957    1.040525
  H      0.884266   -4.038091   -0.762516
  H     -3.273312    0.405975    0.831460
  H     -3.252256    0.353433   -0.920219
  H      1.240897   -1.181792    0.933960
  H      1.262674   -1.233179   -0.817096

 Multiplicity           Mult            ....    1
 Number of Electrons    NEL             ....   88
 Basis Dimension        Dim             ....  218

ORBITAL ENERGIES
----------------

  NO   OCC          E(Eh)            E(eV)
   0   2.0000     -18.753872      -510.3188
   1   2.0000     -18.752648      -510.2855
   2   2.0000     -14.049305      -382.3010
   3   2.0000     -14.049095      -382.2953
   4   2.0000     -10.015649      -272.5397
   5   2.0000     -10.014881      -272.5188
   6   2.0000      -9.971836      -271.3475
   7   2.0000      -9.971319      -271.3334
   8   2.0000      -9.954486      -270.8753
   9   2.0000      -9.953755      -270.8554
  10   2.0000      -9.944604      -270.6064
  11   2.0000      -9.944488      -270.6033
  12   2.0000      -0.945587       -25.7307
  13   2.0000      -0.938804       -25.5461
  14   2.0000      -0.884045       -24.0561
  15   2.0000      -0.871860       -23.7245
  16   2.0000      -0.761692       -20.7267
  17   2.0000      -0.701386       -19.0857
  18   2.0000      -0.667023       -18.1506
  19   2.0000      -0.640883       -17.4393
  20   2.0000      -0.610187       -16.6040
  21   2.0000      -0.536665       -14.6034
  22   2.0000      -0.532513       -14.4904
  23   2.0000      -0.486664       -13.2428
  24   2.0000      -0.463469       -12.6116
  25   2.0000      -0.453322       -12.3355
  26   2.0000      -0.449468       -12.2306
  27   2.0000      -0.438938       -11.9441
  28   2.0000      -0.434386       -11.8202
  29   2.0000      -0.387919       -10.5558
  30   2.0000      -0.382033       -10.3956
  31   2.0000      -0.380899       -10.3648
  32   2.0000      -0.376836       -10.2542
  33   2.0000      -0.368209       -10.0195
  34   2.0000      -0.349529        -9.5112
  35   2.0000      -0.348375        -9.4798
  36   2.0000      -0.348037        -9.4706
  37   2.0000      -0.342437        -9.3182
  38   2.0000      -0.341035        -9.2800
  39   2.0000      -0.240447        -6.5429
  40   2.0000      -0.227435        -6.1888
  41   2.0000      -0.217809        -5.9269
  42   2.0000      -0.215153        -5.8546
  43   2.0000      -0.211167        -5.7462
  44   0.0000      -0.106183        -2.8894
  45   0.0000      -0.002795        -0.0761
  46   0.0000       0.033378         0.9083
  47   0.0000       0.033806         0.9199
  48   0.0000       0.035873         0.9761

MULLIKEN ATOMIC CHARGES
-----------------------
   0 C :    0.272349
   1 C :   -0.203703
   2 N :   -0.345096
   3 C :   -0.200886
   4 C :    0.155839
   5 C :    0.063131
   6 H :    0.040259
   7 H :    0.069054
   8 H :    0.040259
   9 C :    0.156071
  10 N :   -0.344999
  11 C :    0.272485
  12 O :   -0.190939
  13 O :   -0.183000
  14 C :    0.063877
  15 H :    0.068119
  16 H :    0.040375
  17 H :    0.040392
  18 H :    0.047055
  19 H :    0.047100
  20 H :    0.046152
  21 H :    0.046108
Sum of atomic charges:    0.0000000

LOEWDIN ATOMIC CHARGES
----------------------
   0 C :    0.022784
   1 C :   -0.049882
   2 N :   -0.044399
   3 C :   -0.049018
   4 C :    0.052251
   5 C :    0.009401
   6 H :    0.026810
   7 H :    0.042528
   8 H :    0.026806
   9 C :    0.051331
  10 N :   -0.045794
  11 C :    0.021610
  12 O :   -0.194529
  13 O :   -0.187992
  14 C :    0.009785
  15 H :    0.042481
  16 H :    0.026908
  17 H :    0.026920
  18 H :    0.053331
  19 H :    0.053315
  20 H :    0.052677
  21 H :    0.052677

  Mayer bond orders larger than 0.100000
B(  0-C ,  1-C ) :   1.0886 B(  0-C ,  2-N ) :   1.0293 B(  0-C , 18-H ) :   0.8552
B(  0-C , 19-H ) :   0.8552 B(  1-C ,  3-C ) :   1.6745 B(  1-C ,  9-C ) :   0.9637
B(  2-N ,  4-C ) :   1.0453 B(  2-N ,  5-C ) :   0.9965 B(  2-N , 12-O ) :   0.1057
B(  3-C ,  4-C ) :   0.9678 B(  3-C , 11-C ) :   1.0843 B(  4-C , 12-O ) :   2.1009
B(  5-C ,  6-H ) :   0.9644 B(  5-C ,  7-H ) :   0.9438 B(  5-C ,  8-H ) :   0.9644
B(  9-C , 10-N ) :   1.0405 B(  9-C , 13-O ) :   2.1113 B( 10-N , 11-C ) :   1.0334
B( 10-N , 13-O ) :   0.1060 B( 10-N , 14-C ) :   0.9974 B( 11-C , 20-H ) :   0.8552
B( 11-C , 21-H ) :   0.8553 B( 14-C , 15-H ) :   0.9452 B( 14-C , 16-H ) :   0.9641
B( 14-C , 17-H ) :   0.9642

Dispersion correction           -0.035947646
FINAL SINGLE POINT ENERGY      -570.449033406382

DIPOLE MOMENT
-------------
                                X             Y             Z
Electronic contribution:     -0.05862      -0.03010      -0.00292
Nuclear contribution   :      0.04499       0.01111       0.00416
                        -----------------------------------------
Total Dipole Moment    :     -0.01363      -0.01899       0.00124
                        -----------------------------------------
Magnitude (a.u.)       :      0.02341
Magnitude (Debye)      :      0.05950

Rotational constants in cm-1:     0.070736     0.021290     0.016570
Rotational constants in MHz :  2120.613374   638.259246   496.748107

                             ****ORCA TERMINATED NORMALLY****
TOTAL RUN TIME: 0 days 0 hours 2 minutes 28 seconds 891 msec
