                         Program Version 4.2.0 -  RELEASE  -
|  1> ! RI BP86 def2-SVP def2/J D3BJ TIGHTSCF  Opt Grid3 FinalGrid5
|  2> %maxcore 3000
|  3> %geom
|  4> optimizehydrogens true
|  5> end
|  6>
|  7>
|  8> *xyz 0 1
|  9> C	-4.401458	-0.314202	0.003109
| 10> C	-3.394728	-1.361287	0.006329
| 11> N	-3.623132	0.911519	-0.000813
| 12> C	-2.250856	0.650483	-0.000629
| 13> C	-2.106129	-0.753894	0.003839
| 14> C	-3.249072	-2.764379	0.012304
| 15> N	-1.878178	-3.025453	0.013175
| 16> C	-1.100063	-1.798914	0.008504
| 17> C	-1.188808	-4.296244	0.019583
| 18> H	-1.423361	-4.896964	-0.883000
| 19> H	-1.424572	-4.888322	0.927507
| 20> H	-0.108105	-4.053420	0.019049
| 21> C	-4.310677	2.182986	-0.005379
| 22> H	-5.391732	1.941334	-0.004988
| 23> H	-4.075151	2.776326	-0.912755
| 24> H	-4.076018	2.782465	0.898195
| 25> O	-5.631448	-0.319905	0.003943
| 26> O	0.131200	-1.792771	0.008486
| 27> H	-4.023161	-3.517491	0.015260
| 28> H	-1.473739	1.400471	-0.003268
| 29> **                         ****END OF INPUT****
 Total Charge           Charge          ....    0
 Multiplicity           Mult            ....    1
 Number of Electrons    NEL             ....   86
Dispersion correction           -0.033566142
FINAL SINGLE POINT ENERGY      -569.255452215842
Dispersion correction            ... done
Dispersion correction           -0.033546645
FINAL SINGLE POINT ENERGY      -569.256104282542
Dispersion correction            ... done
Dispersion correction           -0.033542550
FINAL SINGLE POINT ENERGY      -569.256289991204
Dispersion correction            ... done
Dispersion correction           -0.033542998
FINAL SINGLE POINT ENERGY      -569.256387698037
Dispersion correction            ... done
Dispersion correction           -0.033544668
FINAL SINGLE POINT ENERGY      -569.256394501668
Dispersion correction            ... done
                    ***********************HURRAY********************

CARTESIAN COORDINATES (ANGSTROEM)
---------------------------------
  C     -4.400950   -0.313372    0.002957
  C     -3.394846   -1.361058    0.006222
  N     -3.621893    0.911885   -0.000836
  C     -2.249773    0.650030   -0.000536
  C     -2.105884   -0.754433    0.003880
  C     -3.250027   -2.764236    0.012145
  N     -1.879289   -3.026128    0.013132
  C     -1.100442   -1.800054    0.008591
  C     -1.190678   -4.297331    0.019546
  H     -1.433740   -4.899770   -0.880459
  H     -1.434526   -4.891083    0.925092
  H     -0.108598   -4.062785    0.018872
  C     -4.308678    2.183762   -0.005407
  H     -5.391153    1.951053   -0.004575
  H     -4.064371    2.778354   -0.910285
  H     -4.064431    2.784769    0.895242
  O     -5.630944   -0.318341    0.003676
  O      0.130824   -1.794645    0.008688
  H     -3.996643   -3.567593    0.015621
  H     -1.503145    1.453316   -0.003114

 Multiplicity           Mult            ....    1
 Number of Electrons    NEL             ....   86
 Basis Dimension        Dim             ....  208

ORBITAL ENERGIES
----------------

  NO   OCC          E(Eh)            E(eV)
   0   2.0000     -18.760174      -510.4903
   1   2.0000     -18.760078      -510.4877
   2   2.0000     -14.073364      -382.9557
   3   2.0000     -14.073236      -382.9522
   4   2.0000     -10.013665      -272.4857
   5   2.0000     -10.013489      -272.4809
   6   2.0000      -9.987237      -271.7665
   7   2.0000      -9.986975      -271.7594
   8   2.0000      -9.960118      -271.0286
   9   2.0000      -9.960045      -271.0266
  10   2.0000      -9.921051      -269.9655
  11   2.0000      -9.920924      -269.9621
  12   2.0000      -0.948873       -25.8201
  13   2.0000      -0.943656       -25.6782
  14   2.0000      -0.884724       -24.0746
  15   2.0000      -0.875852       -23.8332
  16   2.0000      -0.758329       -20.6352
  17   2.0000      -0.693922       -18.8826
  18   2.0000      -0.656163       -17.8551
  19   2.0000      -0.628272       -17.0961
  20   2.0000      -0.610735       -16.6190
  21   2.0000      -0.535288       -14.5659
  22   2.0000      -0.532460       -14.4890
  23   2.0000      -0.480174       -13.0662
  24   2.0000      -0.456243       -12.4150
  25   2.0000      -0.449037       -12.2189
  26   2.0000      -0.441392       -12.0109
  27   2.0000      -0.435672       -11.8552
  28   2.0000      -0.422626       -11.5002
  29   2.0000      -0.393752       -10.7145
  30   2.0000      -0.380211       -10.3461
  31   2.0000      -0.377786       -10.2801
  32   2.0000      -0.373867       -10.1734
  33   2.0000      -0.355490        -9.6734
  34   2.0000      -0.355378        -9.6703
  35   2.0000      -0.351196        -9.5565
  36   2.0000      -0.344684        -9.3793
  37   2.0000      -0.298453        -8.1213
  38   2.0000      -0.298149        -8.1131
  39   2.0000      -0.231888        -6.3100
  40   2.0000      -0.224813        -6.1175
  41   2.0000      -0.220834        -6.0092
  42   2.0000      -0.184503        -5.0206
  43   0.0000      -0.118341        -3.2202
  44   0.0000      -0.044185        -1.2023
  45   0.0000       0.037168         1.0114
  46   0.0000       0.044999         1.2245
  47   0.0000       0.047990         1.3059

MULLIKEN ATOMIC CHARGES
-----------------------
   0 C :    0.147907
   1 C :   -0.042302
   2 N :   -0.276157
   3 C :    0.079643
   4 C :   -0.041958
   5 C :    0.078578
   6 N :   -0.275844
   7 C :    0.147558
   8 C :    0.050598
   9 H :    0.052456
  10 H :    0.052422
  11 H :    0.072218
  12 C :    0.050559
  13 H :    0.072188
  14 H :    0.052462
  15 H :    0.052482
  16 O :   -0.177062
  17 O :   -0.178428
  18 H :    0.041215
  19 H :    0.041465
Sum of atomic charges:   -0.0000000

LOEWDIN ATOMIC CHARGES
----------------------
   0 C :    0.059190
   1 C :   -0.123076
   2 N :   -0.002206
   3 C :    0.081458
   4 C :   -0.122768
   5 C :    0.080961
   6 N :   -0.002071
   7 C :    0.059536
   8 C :    0.007990
   9 H :    0.032791
  10 H :    0.032782
  11 H :    0.043392
  12 C :    0.007914
  13 H :    0.043398
  14 H :    0.032807
  15 H :    0.032817
  16 O :   -0.172352
  17 O :   -0.173412
  18 H :    0.040404
  19 H :    0.040445

  Mayer bond orders larger than 0.100000
B(  0-C ,  1-C ) :   1.0114 B(  0-C ,  2-N ) :   0.9711 B(  0-C , 16-O ) :   2.0872
B(  1-C ,  4-C ) :   1.2597 B(  1-C ,  5-C ) :   1.3888 B(  2-N ,  3-C ) :   1.1948
B(  2-N , 12-C ) :   0.9792 B(  3-C ,  4-C ) :   1.3879 B(  3-C ,  5-C ) :   0.1076
B(  3-C , 19-H ) :   0.9773 B(  4-C ,  7-C ) :   1.0136 B(  5-C ,  6-N ) :   1.1959
B(  5-C , 18-H ) :   0.9773 B(  6-N ,  7-C ) :   0.9707 B(  6-N ,  8-C ) :   0.9790
B(  7-C , 17-O ) :   2.0853 B(  8-C ,  9-H ) :   0.9669 B(  8-C , 10-H ) :   0.9668
B(  8-C , 11-H ) :   0.9418 B( 12-C , 13-H ) :   0.9419 B( 12-C , 14-H ) :   0.9668
B( 12-C , 15-H ) :   0.9668

Dispersion correction           -0.033545308
FINAL SINGLE POINT ENERGY      -569.256395199437

DIPOLE MOMENT
-------------
                                X             Y             Z
Electronic contribution:     -0.00691       0.00032      -0.00645
Nuclear contribution   :      0.00457       0.00182       0.00737
                        -----------------------------------------
Total Dipole Moment    :     -0.00234       0.00214       0.00092
                        -----------------------------------------
Magnitude (a.u.)       :      0.00330
Magnitude (Debye)      :      0.00840

Rotational constants in cm-1:     0.073581     0.021546     0.016775
Rotational constants in MHz :  2205.904734   645.927127   502.895118

                             ****ORCA TERMINATED NORMALLY****
TOTAL RUN TIME: 0 days 0 hours 2 minutes 20 seconds 640 msec
