                         Program Version 4.2.0 -  RELEASE  -
|  1> ! RI BP86 def2-SVP def2/J D3BJ TIGHTSCF  Opt Grid3 FinalGrid5
|  2> %maxcore 3000
|  3> %geom
|  4> optimizehydrogens true
|  5> end
|  6>
|  7>
|  8> *xyz 0 1
|  9> C	-1.492072	-0.099233	0.004448
| 10> C	-1.311985	-1.490099	0.016420
| 11> C	0.088141	-1.720797	0.016466
| 12> H	-1.770123	-1.930193	-0.876909
| 13> C	0.701600	-0.462746	0.004194
| 14> H	0.380672	-2.284456	-0.876819
| 15> O	-0.259354	0.503721	-0.002870
| 16> H	-1.767303	-1.914173	0.918893
| 17> H	0.383463	-2.268505	0.918710
| 18> H	-1.990995	0.274966	-0.894202
| 19> H	1.295752	-0.272430	-0.894768
| 20> H	-1.988271	0.290948	0.897793
| 21> H	1.298419	-0.256513	0.897863
| 22> **                         ****END OF INPUT****
 Total Charge           Charge          ....    0
 Multiplicity           Mult            ....    1
 Number of Electrons    NEL             ....   40
Dispersion correction           -0.013857809
FINAL SINGLE POINT ENERGY      -232.231216941118
Dispersion correction            ... done
Dispersion correction           -0.013770230
FINAL SINGLE POINT ENERGY      -232.237912811883
Dispersion correction            ... done
Dispersion correction           -0.013706026
FINAL SINGLE POINT ENERGY      -232.240281427330
Dispersion correction            ... done
Dispersion correction           -0.013693486
FINAL SINGLE POINT ENERGY      -232.240460463907
Dispersion correction            ... done
Dispersion correction           -0.013691305
FINAL SINGLE POINT ENERGY      -232.240486713708
Dispersion correction            ... done
                    ***********************HURRAY********************

CARTESIAN COORDINATES (ANGSTROEM)
---------------------------------
  C     -1.488235   -0.073298    0.004207
  C     -1.307796   -1.464118    0.016178
  C      0.092389   -1.694461    0.016231
  H     -1.809263   -1.951109   -0.848535
  C      0.705529   -0.436255    0.003964
  H      0.410527   -2.317126   -0.848263
  O     -0.255670    0.529969   -0.003104
  H     -1.806823   -1.935801    0.890742
  H      0.413052   -2.301397    0.890918
  H     -2.079863    0.283859   -0.878899
  H      1.384111   -0.292457   -0.878487
  H     -2.077013    0.299388    0.882796
  H      1.386999   -0.276703    0.881470

 Multiplicity           Mult            ....    1
 Number of Electrons    NEL             ....   40
 Basis Dimension        Dim             ....  110

ORBITAL ENERGIES
----------------

  NO   OCC          E(Eh)            E(eV)
   0   2.0000     -18.764917      -510.6194
   1   2.0000      -9.941496      -270.5219
   2   2.0000      -9.940399      -270.4920
   3   2.0000      -9.901754      -269.4404
   4   2.0000      -9.901179      -269.4248
   5   2.0000      -0.973156       -26.4809
   6   2.0000      -0.740788       -20.1579
   7   2.0000      -0.684691       -18.6314
   8   2.0000      -0.540816       -14.7164
   9   2.0000      -0.529476       -14.4078
  10   2.0000      -0.468645       -12.7525
  11   2.0000      -0.467004       -12.7078
  12   2.0000      -0.386241       -10.5102
  13   2.0000      -0.378775       -10.3070
  14   2.0000      -0.357587        -9.7304
  15   2.0000      -0.337263        -9.1774
  16   2.0000      -0.325251        -8.8505
  17   2.0000      -0.279630        -7.6091
  18   2.0000      -0.255545        -6.9537
  19   2.0000      -0.189553        -5.1580
  20   0.0000       0.021234         0.5778
  21   0.0000       0.027900         0.7592
  22   0.0000       0.074303         2.0219
  23   0.0000       0.088575         2.4103
  24   0.0000       0.094652         2.5756

MULLIKEN ATOMIC CHARGES
-----------------------
   0 C :    0.178374
   1 C :   -0.054330
   2 C :   -0.048010
   3 H :    0.020080
   4 C :    0.175814
   5 H :    0.019595
   6 O :   -0.323043
   7 H :    0.020099
   8 H :    0.019579
   9 H :   -0.001055
  10 H :   -0.003010
  11 H :   -0.001063
  12 H :   -0.003031
Sum of atomic charges:   -0.0000000

LOEWDIN ATOMIC CHARGES
----------------------
   0 C :    0.040068
   1 C :   -0.069877
   2 C :   -0.069652
   3 H :    0.036695
   4 C :    0.035137
   5 H :    0.036616
   6 O :   -0.118658
   7 H :    0.036700
   8 H :    0.036614
   9 H :    0.009591
  10 H :    0.008593
  11 H :    0.009584
  12 H :    0.008591

  Mayer bond orders larger than 0.100000
B(  0-C ,  1-C ) :   1.1688 B(  0-C ,  6-O ) :   1.0451 B(  0-C ,  9-H ) :   0.9241
B(  0-C , 11-H ) :   0.9240 B(  1-C ,  2-C ) :   1.1908 B(  1-C ,  3-H ) :   0.9055
B(  1-C ,  7-H ) :   0.9055 B(  2-C ,  4-C ) :   1.1681 B(  2-C ,  5-H ) :   0.9053
B(  2-C ,  8-H ) :   0.9053 B(  4-C ,  6-O ) :   1.0528 B(  4-C , 10-H ) :   0.9228
B(  4-C , 12-H ) :   0.9228

Dispersion correction           -0.013691061
FINAL SINGLE POINT ENERGY      -232.240490272133

DIPOLE MOMENT
-------------
                                X             Y             Z
Electronic contribution:      0.42619       2.66643      -0.02445
Nuclear contribution   :     -0.55494      -3.35527       0.03073
                        -----------------------------------------
Total Dipole Moment    :     -0.12875      -0.68884       0.00627
                        -----------------------------------------
Magnitude (a.u.)       :      0.70080
Magnitude (Debye)      :      1.78128

Rotational constants in cm-1:     0.259617     0.257389     0.142767
Rotational constants in MHz :  7783.126773  7716.322601  4280.058800

                             ****ORCA TERMINATED NORMALLY****
TOTAL RUN TIME: 0 days 0 hours 1 minutes 8 seconds 319 msec
