                         Program Version 4.2.0 -  RELEASE  -
|  1> ! RI BP86 def2-SVP def2/J D3BJ TIGHTSCF  Opt Grid3 FinalGrid5
|  2> %maxcore 3000
|  3> %geom
|  4> optimizehydrogens true
|  5> end
|  6>
|  7>
|  8> *xyz 0 1
|  9> C	1.723356	-0.939109	0.008522
| 10> C	2.588460	-2.039973	0.018478
| 11> C	3.908312	-1.518810	0.013724
| 12> H	2.292641	-3.094546	0.027166
| 13> C	3.790876	-0.122038	0.000788
| 14> H	4.836010	-2.096892	0.018695
| 15> O	2.458360	0.207735	-0.002070
| 16> H	0.652073	-0.802166	0.008056
| 17> H	4.453691	0.730618	-0.006663
| 18> **                         ****END OF INPUT****
 Total Charge           Charge          ....    0
 Multiplicity           Mult            ....    1
 Number of Electrons    NEL             ....   36
Dispersion correction           -0.009798269
FINAL SINGLE POINT ENERGY      -229.869173072796
Dispersion correction            ... done
Dispersion correction           -0.009788475
FINAL SINGLE POINT ENERGY      -229.869564781677
Dispersion correction            ... done
Dispersion correction           -0.009787484
FINAL SINGLE POINT ENERGY      -229.869635396825
Dispersion correction            ... done
Dispersion correction           -0.009787930
FINAL SINGLE POINT ENERGY      -229.869679758459
Dispersion correction            ... done
Dispersion correction           -0.009788371
FINAL SINGLE POINT ENERGY      -229.869681037094
Dispersion correction            ... done
                    ***********************HURRAY********************

CARTESIAN COORDINATES (ANGSTROEM)
---------------------------------
  C      1.719127   -0.937686    0.008655
  C      2.585584   -2.037489    0.018208
  C      3.904794   -1.514702    0.013476
  H      2.289865   -3.092812    0.027636
  C      3.785640   -0.118072    0.000955
  H      4.843030   -2.081361    0.018359
  O      2.452719    0.210063   -0.001677
  H      0.631339   -0.820294    0.007724
  H      4.491681    0.717173   -0.006640

 Multiplicity           Mult            ....    1
 Number of Electrons    NEL             ....   36
 Basis Dimension        Dim             ....   90

ORBITAL ENERGIES
----------------

  NO   OCC          E(Eh)            E(eV)
   0   2.0000     -18.847781      -512.8742
   1   2.0000      -9.963610      -271.1236
   2   2.0000      -9.963364      -271.1169
   3   2.0000      -9.918198      -269.8879
   4   2.0000      -9.917399      -269.8661
   5   2.0000      -1.010890       -27.5077
   6   2.0000      -0.714601       -19.4453
   7   2.0000      -0.669340       -18.2137
   8   2.0000      -0.535154       -14.5623
   9   2.0000      -0.507955       -13.8222
  10   2.0000      -0.482584       -13.1318
  11   2.0000      -0.402397       -10.9498
  12   2.0000      -0.401088       -10.9141
  13   2.0000      -0.358789        -9.7631
  14   2.0000      -0.358399        -9.7525
  15   2.0000      -0.321508        -8.7487
  16   2.0000      -0.250582        -6.8187
  17   2.0000      -0.202460        -5.5092
  18   0.0000      -0.031128        -0.8470
  19   0.0000       0.023699         0.6449
  20   0.0000       0.059733         1.6254
  21   0.0000       0.085320         2.3217
  22   0.0000       0.093325         2.5395

MULLIKEN ATOMIC CHARGES
-----------------------
   0 C :    0.085594
   1 C :   -0.046667
   2 C :   -0.043968
   3 H :    0.017642
   4 C :    0.084316
   5 H :    0.017831
   6 O :   -0.183894
   7 H :    0.034367
   8 H :    0.034779
Sum of atomic charges:    0.0000000

LOEWDIN ATOMIC CHARGES
----------------------
   0 C :    0.012125
   1 C :   -0.086793
   2 C :   -0.084069
   3 H :    0.035566
   4 C :    0.013223
   5 H :    0.035651
   6 O :    0.018826
   7 H :    0.027670
   8 H :    0.027802

  Mayer bond orders larger than 0.100000
B(  0-C ,  1-C ) :   1.5051 B(  0-C ,  4-C ) :   0.1293 B(  0-C ,  6-O ) :   1.1605
B(  0-C ,  7-H ) :   0.9887 B(  1-C ,  2-C ) :   1.2767 B(  1-C ,  3-H ) :   0.9927
B(  2-C ,  4-C ) :   1.5071 B(  2-C ,  5-H ) :   0.9925 B(  4-C ,  6-O ) :   1.1477
B(  4-C ,  8-H ) :   0.9894

Dispersion correction           -0.009788488
FINAL SINGLE POINT ENERGY      -229.869681171419

DIPOLE MOMENT
-------------
                                X             Y             Z
Electronic contribution:     -0.63822       1.61166      -0.01418
Nuclear contribution   :      0.70553      -1.77649       0.01555
                        -----------------------------------------
Total Dipole Moment    :      0.06731      -0.16483       0.00138
                        -----------------------------------------
Magnitude (a.u.)       :      0.17804
Magnitude (Debye)      :      0.45255

Rotational constants in cm-1:     0.310591     0.300437     0.152715
Rotational constants in MHz :  9311.269795  9006.866763  4578.269543

                             ****ORCA TERMINATED NORMALLY****
TOTAL RUN TIME: 0 days 0 hours 1 minutes 16 seconds 537 msec
