                         Program Version 4.2.0 -  RELEASE  -
|  1> ! RI BP86 def2-SVP def2/J D3BJ TIGHTSCF  Opt Grid3 FinalGrid5
|  2> %maxcore 3000
|  3> %geom
|  4> optimizehydrogens true
|  5> end
|  6>
|  7>
|  8> *xyz 0 1
|  9> C	-2.562708	0.029471	0.001930
| 10> C	-2.643754	1.435894	-0.002334
| 11> C	-1.389710	2.075522	-0.004635
| 12> H	-3.588657	1.986408	-0.003640
| 13> C	-0.310196	1.179647	-0.002090
| 14> H	-1.260416	3.166999	-0.007966
| 15> S	-0.868369	-0.480869	0.003064
| 16> H	-3.339826	-0.720516	0.004570
| 17> H	0.746817	1.401283	-0.002973
| 18> **                         ****END OF INPUT****
 Total Charge           Charge          ....    0
 Multiplicity           Mult            ....    1
 Number of Electrons    NEL             ....   44
Dispersion correction           -0.013894656
FINAL SINGLE POINT ENERGY      -552.826937378554
Dispersion correction            ... done
Dispersion correction           -0.013880399
FINAL SINGLE POINT ENERGY      -552.827358553532
Dispersion correction            ... done
Dispersion correction           -0.013879973
FINAL SINGLE POINT ENERGY      -552.827385441778
Dispersion correction            ... done
Dispersion correction           -0.013880522
FINAL SINGLE POINT ENERGY      -552.827412869566
Dispersion correction            ... done
                    ***********************HURRAY********************

CARTESIAN COORDINATES (ANGSTROEM)
---------------------------------
  C     -2.559459    0.030800    0.001987
  C     -2.642016    1.437135   -0.002276
  C     -1.388660    2.078110   -0.004612
  H     -3.605868    1.965935   -0.003636
  C     -0.308184    1.183395   -0.002096
  H     -1.251953    3.168659   -0.007969
  S     -0.864573   -0.477720    0.003075
  H     -3.362358   -0.715453    0.004498
  H      0.766252    1.402977   -0.003044

 Multiplicity           Mult            ....    1
 Number of Electrons    NEL             ....   44
 Basis Dimension        Dim             ....   94

ORBITAL ENERGIES
----------------

  NO   OCC          E(Eh)            E(eV)
   0   2.0000     -88.120089     -2397.8695
   1   2.0000      -9.943781      -270.5840
   2   2.0000      -9.942587      -270.5516
   3   2.0000      -9.923511      -270.0325
   4   2.0000      -9.922771      -270.0123
   5   2.0000      -7.715694      -209.9547
   6   2.0000      -5.742633      -156.2650
   7   2.0000      -5.738234      -156.1453
   8   2.0000      -5.735469      -156.0701
   9   2.0000      -0.792009       -21.5517
  10   2.0000      -0.664701       -18.0874
  11   2.0000      -0.642179       -17.4746
  12   2.0000      -0.507332       -13.8052
  13   2.0000      -0.492773       -13.4090
  14   2.0000      -0.460513       -12.5312
  15   2.0000      -0.366472        -9.9722
  16   2.0000      -0.356044        -9.6884
  17   2.0000      -0.344840        -9.3836
  18   2.0000      -0.336667        -9.1612
  19   2.0000      -0.309474        -8.4212
  20   2.0000      -0.230235        -6.2650
  21   2.0000      -0.209545        -5.7020
  22   0.0000      -0.054878        -1.4933
  23   0.0000       0.005671         0.1543
  24   0.0000       0.019487         0.5303
  25   0.0000       0.048855         1.3294
  26   0.0000       0.064699         1.7605

MULLIKEN ATOMIC CHARGES
-----------------------
   0 C :   -0.134881
   1 C :    0.015000
   2 C :    0.015512
   3 H :    0.017804
   4 C :   -0.133002
   5 H :    0.017907
   6 S :    0.089195
   7 H :    0.056306
   8 H :    0.056158
Sum of atomic charges:    0.0000000

LOEWDIN ATOMIC CHARGES
----------------------
   0 C :   -0.196742
   1 C :   -0.074586
   2 C :   -0.077021
   3 H :    0.036717
   4 C :   -0.199795
   5 H :    0.037101
   6 S :    0.411067
   7 H :    0.031574
   8 H :    0.031685

  Mayer bond orders larger than 0.100000
B(  0-C ,  1-C ) :   1.5234 B(  0-C ,  4-C ) :   0.1184 B(  0-C ,  6-S ) :   1.1798
B(  0-C ,  7-H ) :   0.9640 B(  1-C ,  2-C ) :   1.3158 B(  1-C ,  3-H ) :   0.9811
B(  2-C ,  4-C ) :   1.5227 B(  2-C ,  5-H ) :   0.9817 B(  4-C ,  6-S ) :   1.1883
B(  4-C ,  8-H ) :   0.9622

Dispersion correction           -0.013880780
FINAL SINGLE POINT ENERGY      -552.827413125569

DIPOLE MOMENT
-------------
                                X             Y             Z
Electronic contribution:      1.66884      -3.23085       0.00938
Nuclear contribution   :     -1.74166       3.37998      -0.00980
                        -----------------------------------------
Total Dipole Moment    :     -0.07282       0.14913      -0.00042
                        -----------------------------------------
Magnitude (a.u.)       :      0.16596
Magnitude (Debye)      :      0.42184

Rotational constants in cm-1:     0.260582     0.172515     0.103797
Rotational constants in MHz :  7812.058354  5171.869479  3111.766078

                             ****ORCA TERMINATED NORMALLY****
TOTAL RUN TIME: 0 days 0 hours 0 minutes 38 seconds 927 msec
