                         Program Version 4.2.0 -  RELEASE  -
|  1> ! RI BP86 def2-SVP def2/J D3BJ TIGHTSCF  Opt Grid3 FinalGrid5
|  2> %maxcore 3000
|  3> %geom
|  4> optimizehydrogens true
|  5> end
|  6>
|  7>
|  8> *xyz 0 1
|  9> C	-0.375146	-1.545159	0.047435
| 10> C	-1.007997	-0.295266	0.003242
| 11> C	-0.051328	0.745179	-0.015015
| 12> H	-1.645416	-0.202059	0.891639
| 13> S	1.389801	-1.434167	0.067844
| 14> C	1.300809	0.309961	0.014968
| 15> S	-0.140659	2.489066	-0.067038
| 16> C	1.624459	2.600332	-0.048481
| 17> C	2.257232	1.350443	-0.003620
| 18> H	-1.620960	-0.244314	-0.905559
| 19> H	2.870561	1.299503	0.904941
| 20> H	2.894313	1.257330	-0.892275
| 21> H	-0.648728	-2.090847	0.958897
| 22> H	1.891046	3.191098	0.836560
| 23> H	-0.641703	-2.135762	-0.837732
| 24> H	1.897928	3.145882	-0.960051
| 25> **                         ****END OF INPUT****
 Total Charge           Charge          ....    0
 Multiplicity           Mult            ....    1
 Number of Electrons    NEL             ....   76
Dispersion correction           -0.032390110
FINAL SINGLE POINT ENERGY     -1029.454829013634
Dispersion correction            ... done
Dispersion correction           -0.032288705
FINAL SINGLE POINT ENERGY     -1029.459932716300
Dispersion correction            ... done
Dispersion correction           -0.032200837
FINAL SINGLE POINT ENERGY     -1029.462142097921
Dispersion correction            ... done
Dispersion correction           -0.032187145
FINAL SINGLE POINT ENERGY     -1029.462257184975
Dispersion correction            ... done
Dispersion correction           -0.032185180
FINAL SINGLE POINT ENERGY     -1029.462270924797
Dispersion correction            ... done
                    ***********************HURRAY********************

CARTESIAN COORDINATES (ANGSTROEM)
---------------------------------
  C     -0.362398   -1.551277    0.046711
  C     -1.002934   -0.305225    0.004818
  C     -0.052665    0.741063   -0.013719
  H     -1.710100   -0.163788    0.863275
  S      1.401867   -1.429528    0.064631
  C      1.302148    0.314080    0.013790
  S     -0.152721    2.484427   -0.063707
  C      1.611711    2.606452   -0.047639
  C      2.252170    1.360404   -0.005078
  H     -1.689587   -0.212239   -0.876611
  H      2.938779    1.267863    0.876473
  H      2.959507    1.218684   -0.863341
  H     -0.652941   -2.152663    0.934923
  H      1.882391    3.257310    0.811492
  H     -0.632329   -2.201157   -0.813414
  H      1.901312    3.206814   -0.936850

 Multiplicity           Mult            ....    1
 Number of Electrons    NEL             ....   76
 Basis Dimension        Dim             ....  160

ORBITAL ENERGIES
----------------

  NO   OCC          E(Eh)            E(eV)
   0   2.0000     -88.081058     -2396.8074
   1   2.0000     -88.081036     -2396.8068
   2   2.0000      -9.936475      -270.3852
   3   2.0000      -9.936459      -270.3848
   4   2.0000      -9.927555      -270.1425
   5   2.0000      -9.927402      -270.1384
   6   2.0000      -9.923670      -270.0368
   7   2.0000      -9.923640      -270.0360
   8   2.0000      -7.679377      -208.9665
   9   2.0000      -7.679358      -208.9660
  10   2.0000      -5.707585      -155.3113
  11   2.0000      -5.707573      -155.3110
  12   2.0000      -5.703226      -155.1927
  13   2.0000      -5.703220      -155.1925
  14   2.0000      -5.695562      -154.9841
  15   2.0000      -5.695556      -154.9840
  16   2.0000      -0.822360       -22.3775
  17   2.0000      -0.773540       -21.0491
  18   2.0000      -0.697867       -18.9899
  19   2.0000      -0.652941       -17.7674
  20   2.0000      -0.643782       -17.5182
  21   2.0000      -0.552484       -15.0339
  22   2.0000      -0.512136       -13.9359
  23   2.0000      -0.477965       -13.0061
  24   2.0000      -0.445609       -12.1256
  25   2.0000      -0.432531       -11.7698
  26   2.0000      -0.430598       -11.7172
  27   2.0000      -0.399441       -10.8693
  28   2.0000      -0.371111       -10.0984
  29   2.0000      -0.329689        -8.9713
  30   2.0000      -0.325584        -8.8596
  31   2.0000      -0.325512        -8.8576
  32   2.0000      -0.322999        -8.7893
  33   2.0000      -0.307506        -8.3677
  34   2.0000      -0.282528        -7.6880
  35   2.0000      -0.267785        -7.2868
  36   2.0000      -0.208510        -5.6739
  37   2.0000      -0.136510        -3.7146
  38   0.0000      -0.026997        -0.7346
  39   0.0000       0.003628         0.0987
  40   0.0000       0.008242         0.2243
  41   0.0000       0.039227         1.0674
  42   0.0000       0.041320         1.1244

MULLIKEN ATOMIC CHARGES
-----------------------
   0 C :   -0.093421
   1 C :    0.103343
   2 C :   -0.189909
   3 H :    0.031866
   4 S :   -0.014833
   5 C :   -0.189661
   6 S :   -0.014832
   7 C :   -0.093410
   8 C :    0.103190
   9 H :    0.031741
  10 H :    0.031688
  11 H :    0.031905
  12 H :    0.065518
  13 H :    0.065619
  14 H :    0.065636
  15 H :    0.065560
Sum of atomic charges:   -0.0000000

LOEWDIN ATOMIC CHARGES
----------------------
   0 C :   -0.142389
   1 C :   -0.075784
   2 C :   -0.212330
   3 H :    0.042023
   4 S :    0.279587
   5 C :   -0.212276
   6 S :    0.279633
   7 C :   -0.142314
   8 C :   -0.075812
   9 H :    0.042056
  10 H :    0.042037
  11 H :    0.042052
  12 H :    0.033387
  13 H :    0.033378
  14 H :    0.033369
  15 H :    0.033383

  Mayer bond orders larger than 0.100000
B(  0-C ,  1-C ) :   1.1112 B(  0-C ,  4-S ) :   0.9957 B(  0-C , 12-H ) :   0.9275
B(  0-C , 14-H ) :   0.9275 B(  1-C ,  2-C ) :   1.1663 B(  1-C ,  3-H ) :   0.8809
B(  1-C ,  9-H ) :   0.8809 B(  2-C ,  4-S ) :   0.1056 B(  2-C ,  5-C ) :   1.6629
B(  2-C ,  6-S ) :   1.0184 B(  4-S ,  5-C ) :   1.0183 B(  5-C ,  6-S ) :   0.1057
B(  5-C ,  8-C ) :   1.1665 B(  6-S ,  7-C ) :   0.9957 B(  7-C ,  8-C ) :   1.1112
B(  7-C , 13-H ) :   0.9275 B(  7-C , 15-H ) :   0.9275 B(  8-C , 10-H ) :   0.8807
B(  8-C , 11-H ) :   0.8810

Dispersion correction           -0.032184455
FINAL SINGLE POINT ENERGY     -1029.462273577017

DIPOLE MOMENT
-------------
                                X             Y             Z
Electronic contribution:     -0.00006      -0.00035       0.00379
Nuclear contribution   :      0.00003       0.00059      -0.00446
                        -----------------------------------------
Total Dipole Moment    :     -0.00003       0.00024      -0.00067
                        -----------------------------------------
Magnitude (a.u.)       :      0.00071
Magnitude (Debye)      :      0.00180

Rotational constants in cm-1:     0.098460     0.041608     0.029885
Rotational constants in MHz :  2951.747568  1247.377290   895.918344

                             ****ORCA TERMINATED NORMALLY****
TOTAL RUN TIME: 0 days 0 hours 2 minutes 3 seconds 282 msec
