                         Program Version 4.2.0 -  RELEASE  -
|  1> ! RI BP86 def2-SVP def2/J D3BJ TIGHTSCF  Opt Grid3 FinalGrid5
|  2> %maxcore 3000
|  3> %geom
|  4> optimizehydrogens true
|  5> end
|  6>
|  7>
|  8> *xyz 0 1
|  9> C	-1.102631	-0.840710	0.017717
| 10> C	-0.033338	-1.747308	0.058104
| 11> C	1.157923	-0.975423	0.050100
| 12> H	-0.069092	-2.400083	-0.821728
| 13> C	0.764358	0.367129	0.006383
| 14> O	-0.596081	0.434340	-0.012678
| 15> H	-0.091693	-2.347939	0.973164
| 16> H	1.760548	-1.214268	-0.833635
| 17> H	1.738064	-1.162071	0.961028
| 18> H	-1.716522	-0.918889	-0.884046
| 19> H	1.082339	0.888378	-0.901459
| 20> H	-1.738965	-0.866755	0.906846
| 21> H	1.059806	0.940554	0.890059
| 22> **                         ****END OF INPUT****
 Total Charge           Charge          ....    0
 Multiplicity           Mult            ....    1
 Number of Electrons    NEL             ....   40
Dispersion correction           -0.013857842
FINAL SINGLE POINT ENERGY      -232.231213628923
Dispersion correction            ... done
Dispersion correction           -0.013770063
FINAL SINGLE POINT ENERGY      -232.237937705850
Dispersion correction            ... done
Dispersion correction           -0.013705990
FINAL SINGLE POINT ENERGY      -232.240308074782
Dispersion correction            ... done
Dispersion correction           -0.013693352
FINAL SINGLE POINT ENERGY      -232.240491528583
Dispersion correction            ... done
Dispersion correction           -0.013691147
FINAL SINGLE POINT ENERGY      -232.240518986673
Dispersion correction            ... done
                    ***********************HURRAY********************

CARTESIAN COORDINATES (ANGSTROEM)
---------------------------------
  C     -1.117312   -0.819018    0.016953
  C     -0.047727   -1.725276    0.057236
  C      1.143287   -0.953009    0.049223
  H     -0.084100   -2.441869   -0.792247
  C      0.749289    0.389420    0.005604
  O     -0.611172    0.456196   -0.013389
  H     -0.105668   -2.390207    0.946624
  H      1.803539   -1.217858   -0.805320
  H      1.782621   -1.167446    0.933291
  H     -1.787807   -0.971776   -0.868918
  H      1.161354    0.933951   -0.885209
  H     -1.810811   -0.920764    0.892312
  H      1.139222    0.984610    0.873695

 Multiplicity           Mult            ....    1
 Number of Electrons    NEL             ....   40
 Basis Dimension        Dim             ....  110

ORBITAL ENERGIES
----------------

  NO   OCC          E(Eh)            E(eV)
   0   2.0000     -18.764976      -510.6210
   1   2.0000      -9.941652      -270.5261
   2   2.0000      -9.940369      -270.4912
   3   2.0000      -9.901805      -269.4418
   4   2.0000      -9.901234      -269.4263
   5   2.0000      -0.973380       -26.4870
   6   2.0000      -0.740705       -20.1556
   7   2.0000      -0.684806       -18.6345
   8   2.0000      -0.540924       -14.7193
   9   2.0000      -0.529451       -14.4071
  10   2.0000      -0.468653       -12.7527
  11   2.0000      -0.467046       -12.7090
  12   2.0000      -0.386368       -10.5136
  13   2.0000      -0.378844       -10.3089
  14   2.0000      -0.357649        -9.7321
  15   2.0000      -0.337208        -9.1759
  16   2.0000      -0.325342        -8.8530
  17   2.0000      -0.279589        -7.6080
  18   2.0000      -0.255600        -6.9552
  19   2.0000      -0.189600        -5.1593
  20   0.0000       0.021122         0.5748
  21   0.0000       0.027991         0.7617
  22   0.0000       0.074284         2.0214
  23   0.0000       0.088518         2.4087
  24   0.0000       0.094723         2.5775

MULLIKEN ATOMIC CHARGES
-----------------------
   0 C :    0.176214
   1 C :   -0.053633
   2 C :   -0.049147
   3 H :    0.020218
   4 C :    0.176566
   5 O :   -0.322041
   6 H :    0.020189
   7 H :    0.019640
   8 H :    0.019694
   9 H :   -0.000669
  10 H :   -0.003242
  11 H :   -0.000526
  12 H :   -0.003262
Sum of atomic charges:   -0.0000000

LOEWDIN ATOMIC CHARGES
----------------------
   0 C :    0.039803
   1 C :   -0.069884
   2 C :   -0.069613
   3 H :    0.036719
   4 C :    0.034900
   5 O :   -0.118230
   6 H :    0.036693
   7 H :    0.036556
   8 H :    0.036598
   9 H :    0.009655
  10 H :    0.008540
  11 H :    0.009745
  12 H :    0.008517

  Mayer bond orders larger than 0.100000
B(  0-C ,  1-C ) :   1.1699 B(  0-C ,  5-O ) :   1.0455 B(  0-C ,  9-H ) :   0.9239
B(  0-C , 11-H ) :   0.9238 B(  1-C ,  2-C ) :   1.1906 B(  1-C ,  3-H ) :   0.9054
B(  1-C ,  6-H ) :   0.9054 B(  2-C ,  4-C ) :   1.1683 B(  2-C ,  7-H ) :   0.9055
B(  2-C ,  8-H ) :   0.9055 B(  4-C ,  5-O ) :   1.0538 B(  4-C , 10-H ) :   0.9225
B(  4-C , 12-H ) :   0.9225

Dispersion correction           -0.013690901
FINAL SINGLE POINT ENERGY      -232.240522812276

DIPOLE MOMENT
-------------
                                X             Y             Z
Electronic contribution:     -1.47969       2.25769      -0.08368
Nuclear contribution   :      1.84742      -2.85211       0.10563
                        -----------------------------------------
Total Dipole Moment    :      0.36773      -0.59442       0.02196
                        -----------------------------------------
Magnitude (a.u.)       :      0.69931
Magnitude (Debye)      :      1.77751

Rotational constants in cm-1:     0.259687     0.257345     0.142778
Rotational constants in MHz :  7785.208732  7715.012313  4280.378873

                             ****ORCA TERMINATED NORMALLY****
TOTAL RUN TIME: 0 days 0 hours 0 minutes 52 seconds 102 msec
