                         Program Version 4.2.0 -  RELEASE  -
|  1> ! RI BP86 def2-SVP def2/J D3BJ TIGHTSCF  Opt Grid3 FinalGrid5
|  2> %maxcore 3000
|  3> %geom
|  4> optimizehydrogens true
|  5> end
|  6>
|  7>
|  8> *xyz 0 1
|  9> C	-1.947023	-0.737192	0.011964
| 10> C	-1.765739	-2.127903	0.023978
| 11> C	-0.365415	-2.357396	0.024075
| 12> H	-2.549574	-2.889690	0.031991
| 13> C	0.246961	-1.098818	0.011791
| 14> H	0.146837	-3.325538	0.031899
| 15> O	-0.714824	-0.133178	0.004671
| 16> H	-2.777798	-0.047126	0.007262
| 17> H	1.264644	-0.737294	0.007022
| 18> **                         ****END OF INPUT****
 Total Charge           Charge          ....    0
 Multiplicity           Mult            ....    1
 Number of Electrons    NEL             ....   36
Dispersion correction           -0.009798690
FINAL SINGLE POINT ENERGY      -229.869181863173
Dispersion correction            ... done
Dispersion correction           -0.009788902
FINAL SINGLE POINT ENERGY      -229.869559398051
Dispersion correction            ... done
Dispersion correction           -0.009788007
FINAL SINGLE POINT ENERGY      -229.869621319521
Dispersion correction            ... done
Dispersion correction           -0.009788424
FINAL SINGLE POINT ENERGY      -229.869661794543
Dispersion correction            ... done
                    ***********************HURRAY********************

CARTESIAN COORDINATES (ANGSTROEM)
---------------------------------
  C     -1.943276   -0.732788    0.011995
  C     -1.763189   -2.123654    0.023967
  C     -0.363063   -2.354352    0.024013
  H     -2.559470   -2.876969    0.031938
  C      0.250396   -1.096301    0.011741
  H      0.149382   -3.323157    0.031823
  O     -0.710558   -0.129834    0.004677
  H     -2.810747   -0.066460    0.007371
  H      1.288593   -0.750620    0.007127

 Multiplicity           Mult            ....    1
 Number of Electrons    NEL             ....   36
 Basis Dimension        Dim             ....   90

ORBITAL ENERGIES
----------------

  NO   OCC          E(Eh)            E(eV)
   0   2.0000     -18.847756      -512.8735
   1   2.0000      -9.963735      -271.1270
   2   2.0000      -9.963486      -271.1202
   3   2.0000      -9.918127      -269.8860
   4   2.0000      -9.917271      -269.8627
   5   2.0000      -1.010805       -27.5054
   6   2.0000      -0.714516       -19.4430
   7   2.0000      -0.669325       -18.2133
   8   2.0000      -0.535080       -14.5603
   9   2.0000      -0.507968       -13.8225
  10   2.0000      -0.482548       -13.1308
  11   2.0000      -0.402428       -10.9506
  12   2.0000      -0.401063       -10.9135
  13   2.0000      -0.358769        -9.7626
  14   2.0000      -0.358324        -9.7505
  15   2.0000      -0.321472        -8.7477
  16   2.0000      -0.250507        -6.8166
  17   2.0000      -0.202458        -5.5092
  18   0.0000      -0.031167        -0.8481
  19   0.0000       0.023664         0.6439
  20   0.0000       0.059712         1.6248
  21   0.0000       0.085138         2.3167
  22   0.0000       0.093228         2.5369

MULLIKEN ATOMIC CHARGES
-----------------------
   0 C :    0.084941
   1 C :   -0.045536
   2 C :   -0.045798
   3 H :    0.018188
   4 C :    0.085512
   5 H :    0.017257
   6 O :   -0.183678
   7 H :    0.034605
   8 H :    0.034509
Sum of atomic charges:    0.0000000

LOEWDIN ATOMIC CHARGES
----------------------
   0 C :    0.013366
   1 C :   -0.084438
   2 C :   -0.086646
   3 H :    0.035617
   4 C :    0.012285
   5 H :    0.035545
   6 O :    0.018694
   7 H :    0.027813
   8 H :    0.027764

  Mayer bond orders larger than 0.100000
B(  0-C ,  1-C ) :   1.5071 B(  0-C ,  4-C ) :   0.1295 B(  0-C ,  6-O ) :   1.1485
B(  0-C ,  7-H ) :   0.9894 B(  1-C ,  2-C ) :   1.2768 B(  1-C ,  3-H ) :   0.9924
B(  2-C ,  4-C ) :   1.5055 B(  2-C ,  5-H ) :   0.9928 B(  4-C ,  6-O ) :   1.1597
B(  4-C ,  8-H ) :   0.9886

Dispersion correction           -0.009788821
FINAL SINGLE POINT ENERGY      -229.869662794674

DIPOLE MOMENT
-------------
                                X             Y             Z
Electronic contribution:      0.28216       1.71114      -0.01567
Nuclear contribution   :     -0.31244      -1.88637       0.01731
                        -----------------------------------------
Total Dipole Moment    :     -0.03028      -0.17523       0.00164
                        -----------------------------------------
Magnitude (a.u.)       :      0.17784
Magnitude (Debye)      :      0.45203

Rotational constants in cm-1:     0.310514     0.300409     0.152689
Rotational constants in MHz :  9308.966081  9006.039062  4577.498713

                             ****ORCA TERMINATED NORMALLY****
TOTAL RUN TIME: 0 days 0 hours 0 minutes 56 seconds 768 msec
