                         Program Version 4.2.0 -  RELEASE  -
|  1> ! RI BP86 def2-SVP def2/J D3BJ TIGHTSCF  Opt Grid3 FinalGrid5
|  2> %maxcore 3000
|  3> %geom
|  4> optimizehydrogens true
|  5> end
|  6>
|  7>
|  8> *xyz 0 1
|  9> C	0.255404	-1.020410	0.047509
| 10> C	-0.381003	0.227678	0.003360
| 11> C	0.572700	1.270842	-0.014874
| 12> H	-1.477991	0.319880	-0.013294
| 13> S	2.020028	-0.904395	0.067904
| 14> C	1.926071	0.839474	0.015082
| 15> S	0.478405	3.014470	-0.066844
| 16> C	2.243199	3.130759	-0.048301
| 17> C	2.879528	1.882675	-0.003484
| 18> H	3.976567	1.789667	0.012809
| 19> H	-0.250182	-1.974524	0.068750
| 20> H	2.748433	4.085025	-0.070976
| 21> **                         ****END OF INPUT****
 Total Charge           Charge          ....    0
 Multiplicity           Mult            ....    1
 Number of Electrons    NEL             ....   72
Dispersion correction           -0.027492043
FINAL SINGLE POINT ENERGY     -1027.113998114252
Dispersion correction            ... done
Dispersion correction           -0.027485281
FINAL SINGLE POINT ENERGY     -1027.114642611179
Dispersion correction            ... done
Dispersion correction           -0.027487164
FINAL SINGLE POINT ENERGY     -1027.114812511074
Dispersion correction            ... done
FINAL SINGLE POINT ENERGY     -1027.114925168562
                         Program Version 4.2.0 -  RELEASE  -
|  1> ! RI BP86 def2-SVP def2/J D3BJ TIGHTSCF  Opt Grid3 FinalGrid5
|  2> %maxcore 3000
|  3> %geom
|  4> optimizehydrogens true
|  5> end
|  6>
|  7>
|  8> *xyz 0 1
|  9> C	0.255404	-1.020410	0.047509
| 10> C	-0.381003	0.227678	0.003360
| 11> C	0.572700	1.270842	-0.014874
| 12> H	-1.477991	0.319880	-0.013294
| 13> S	2.020028	-0.904395	0.067904
| 14> C	1.926071	0.839474	0.015082
| 15> S	0.478405	3.014470	-0.066844
| 16> C	2.243199	3.130759	-0.048301
| 17> C	2.879528	1.882675	-0.003484
| 18> H	3.976567	1.789667	0.012809
| 19> H	-0.250182	-1.974524	0.068750
| 20> H	2.748433	4.085025	-0.070976
| 21> **                         ****END OF INPUT****
ORCA finished by error termination in GSTEP
FINAL SINGLE POINT ENERGY     -1027.113998114252
ORCA finished by error termination in GSTEP
                         Program Version 4.2.0 -  RELEASE  -
|  1> ! RI BP86 def2-SVP def2/J D3BJ TIGHTSCF  Opt Grid3 FinalGrid5
|  2> %maxcore 3000
|  3> %geom
|  4> optimizehydrogens true
|  5> end
|  6>
|  7>
|  8> *xyz 0 1
|  9> C	0.255404	-1.020410	0.047509
| 10> C	-0.381003	0.227678	0.003360
| 11> C	0.572700	1.270842	-0.014874
| 12> H	-1.477991	0.319880	-0.013294
| 13> S	2.020028	-0.904395	0.067904
| 14> C	1.926071	0.839474	0.015082
| 15> S	0.478405	3.014470	-0.066844
| 16> C	2.243199	3.130759	-0.048301
| 17> C	2.879528	1.882675	-0.003484
| 18> H	3.976567	1.789667	0.012809
| 19> H	-0.250182	-1.974524	0.068750
| 20> H	2.748433	4.085025	-0.070976
| 21> **                         ****END OF INPUT****
FINAL SINGLE POINT ENERGY     -1027.113998114252
FINAL SINGLE POINT ENERGY     -1027.114642611179
FINAL SINGLE POINT ENERGY     -1027.114812511074
Dispersion correction            ... done
Dispersion correction           -0.027492524
FINAL SINGLE POINT ENERGY     -1027.114925168562
Dispersion correction            ... done
Dispersion correction           -0.027494098
FINAL SINGLE POINT ENERGY     -1027.114931449788
Dispersion correction            ... done

CARTESIAN COORDINATES (ANGSTROEM)
---------------------------------
  C      0.249478   -1.017635    0.047466
  C     -0.383373    0.232258    0.003273
  C      0.573296    1.272703   -0.014984
  H     -1.473360    0.357925   -0.014514
  S      2.014425   -0.906643    0.067875
  C      1.925433    0.837485    0.014999
  S      0.483965    3.016590   -0.067007
  C      2.249083    3.127856   -0.048450
  C      2.881856    1.877967   -0.003589
  H      3.971868    1.752392    0.013763
  H     -0.221374   -2.008166    0.070388
  H      2.719863    4.118409   -0.071576

 Multiplicity           Mult            ....    1
 Number of Electrons    NEL             ....   72
 Basis Dimension        Dim             ....  140

ORBITAL ENERGIES
----------------

  NO   OCC          E(Eh)            E(eV)
   0   2.0000     -88.122350     -2397.9311
   1   2.0000     -88.122333     -2397.9306
   2   2.0000      -9.948291      -270.7068
   3   2.0000      -9.948284      -270.7066
   4   2.0000      -9.946044      -270.6456
   5   2.0000      -9.945911      -270.6420
   6   2.0000      -9.934152      -270.3220
   7   2.0000      -9.934105      -270.3207
   8   2.0000      -7.718111      -210.0205
   9   2.0000      -7.718095      -210.0200
  10   2.0000      -5.745346      -156.3388
  11   2.0000      -5.745334      -156.3385
  12   2.0000      -5.741139      -156.2243
  13   2.0000      -5.741132      -156.2241
  14   2.0000      -5.736926      -156.1097
  15   2.0000      -5.736921      -156.1095
  16   2.0000      -0.823025       -22.3956
  17   2.0000      -0.762489       -20.7484
  18   2.0000      -0.693321       -18.8662
  19   2.0000      -0.643557       -17.5121
  20   2.0000      -0.629554       -17.1310
  21   2.0000      -0.531733       -14.4692
  22   2.0000      -0.510482       -13.8909
  23   2.0000      -0.478985       -13.0338
  24   2.0000      -0.441904       -12.0248
  25   2.0000      -0.413625       -11.2553
  26   2.0000      -0.375372       -10.2144
  27   2.0000      -0.368643       -10.0313
  28   2.0000      -0.348009        -9.4698
  29   2.0000      -0.346545        -9.4300
  30   2.0000      -0.331570        -9.0225
  31   2.0000      -0.306532        -8.3412
  32   2.0000      -0.299735        -8.1562
  33   2.0000      -0.258011        -7.0208
  34   2.0000      -0.210735        -5.7344
  35   2.0000      -0.193661        -5.2698
  36   0.0000      -0.066946        -1.8217
  37   0.0000      -0.012454        -0.3389
  38   0.0000      -0.011875        -0.3231
  39   0.0000       0.002052         0.0558
  40   0.0000       0.029277         0.7967

MULLIKEN ATOMIC CHARGES
-----------------------
   0 C :   -0.129698
   1 C :    0.015295
   2 C :   -0.068176
   3 H :    0.013472
   4 S :    0.116131
   5 C :   -0.067939
   6 S :    0.116113
   7 C :   -0.129706
   8 C :    0.015127
   9 H :    0.013474
  10 H :    0.052957
  11 H :    0.052952
Sum of atomic charges:   -0.0000000

LOEWDIN ATOMIC CHARGES
----------------------
   0 C :   -0.186795
   1 C :   -0.079766
   2 C :   -0.210436
   3 H :    0.041186
   4 S :    0.404685
   5 C :   -0.210398
   6 S :    0.404722
   7 C :   -0.186775
   8 C :   -0.079759
   9 H :    0.041190
  10 H :    0.031073
  11 H :    0.031074

  Mayer bond orders larger than 0.100000
B(  0-C ,  1-C ) :   1.5337 B(  0-C ,  4-S ) :   1.1466 B(  0-C , 10-H ) :   0.9567
B(  1-C ,  2-C ) :   1.2894 B(  1-C ,  3-H ) :   0.9853 B(  2-C ,  5-C ) :   1.3742
B(  2-C ,  6-S ) :   1.0879 B(  4-S ,  5-C ) :   1.0877 B(  5-C ,  8-C ) :   1.2896
B(  6-S ,  7-C ) :   1.1465 B(  7-C ,  8-C ) :   1.5336 B(  7-C , 11-H ) :   0.9567
B(  8-C ,  9-H ) :   0.9853

Dispersion correction           -0.027494357
FINAL SINGLE POINT ENERGY     -1027.114931731731

DIPOLE MOMENT
-------------
                                X             Y             Z
Electronic contribution:     -0.00008      -0.00038       0.00226
Nuclear contribution   :      0.00001       0.00036      -0.00212
                        -----------------------------------------
Total Dipole Moment    :     -0.00007      -0.00003       0.00014
                        -----------------------------------------
Magnitude (a.u.)       :      0.00016
Magnitude (Debye)      :      0.00040

Rotational constants in cm-1:     0.108204     0.043484     0.031019
Rotational constants in MHz :  3243.878137  1303.613667   929.911337

                             ****ORCA TERMINATED NORMALLY****
TOTAL RUN TIME: 0 days 0 hours 1 minutes 2 seconds 393 msec
