                         Program Version 4.2.0 -  RELEASE  -
|  1> ! RI BP86 def2-SVP def2/J D3BJ TIGHTSCF  Opt Grid3 FinalGrid5
|  2> %maxcore 3000
|  3> %geom
|  4> optimizehydrogens true
|  5> end
|  6>
|  7>
|  8> *xyz 0 1
|  9> C	-1.457630	-0.038597	-0.199567
| 10> C	-1.323039	1.346279	-0.010023
| 11> C	0.007599	1.788361	0.127512
| 12> H	-2.188270	2.013061	-0.003403
| 13> C	0.954061	0.759536	0.037029
| 14> H	0.286347	2.840870	0.278067
| 15> S	0.161822	-0.774432	-0.205997
| 16> H	-2.302403	-0.706550	-0.280795
| 17> H	2.030683	0.819813	0.097447
| 18> **                         ****END OF INPUT****
 Total Charge           Charge          ....    0
 Multiplicity           Mult            ....    1
 Number of Electrons    NEL             ....   44
Dispersion correction           -0.013885357
FINAL SINGLE POINT ENERGY      -552.826252758846
Dispersion correction            ... done
Dispersion correction           -0.013869876
FINAL SINGLE POINT ENERGY      -552.826898662315
Dispersion correction            ... done
Dispersion correction           -0.013867734
FINAL SINGLE POINT ENERGY      -552.827032188575
Dispersion correction            ... done
FINAL SINGLE POINT ENERGY      -552.827105687295
Dispersion correction            ... done
Dispersion correction           -0.013868945
FINAL SINGLE POINT ENERGY      -552.827118903590
Dispersion correction            ... done
Dispersion correction           -0.013869287
FINAL SINGLE POINT ENERGY      -552.827121862549
Dispersion correction            ... done
                    ***********************HURRAY********************

CARTESIAN COORDINATES (ANGSTROEM)
---------------------------------
  C     -1.447808   -0.052666   -0.187082
  C     -1.321731    1.334987   -0.012594
  C      0.006310    1.787006    0.117550
  H     -2.196148    2.001286    0.022499
  C      0.959171    0.763341    0.036153
  H      0.281773    2.841494    0.261151
  S      0.176312   -0.778166   -0.188906
  H     -2.340297   -0.675626   -0.311422
  H      2.051588    0.826686    0.102921

 Multiplicity           Mult            ....    1
 Number of Electrons    NEL             ....   44
 Basis Dimension        Dim             ....   94

ORBITAL ENERGIES
----------------

  NO   OCC          E(Eh)            E(eV)
   0   2.0000     -88.119013     -2397.8402
   1   2.0000      -9.944463      -270.6026
   2   2.0000      -9.942706      -270.5548
   3   2.0000      -9.923468      -270.0313
   4   2.0000      -9.922382      -270.0018
   5   2.0000      -7.714657      -209.9265
   6   2.0000      -5.741596      -156.2368
   7   2.0000      -5.737169      -156.1163
   8   2.0000      -5.734428      -156.0417
   9   2.0000      -0.792694       -21.5703
  10   2.0000      -0.663428       -18.0528
  11   2.0000      -0.643966       -17.5232
  12   2.0000      -0.508200       -13.8288
  13   2.0000      -0.492757       -13.4086
  14   2.0000      -0.460486       -12.5304
  15   2.0000      -0.370164       -10.0727
  16   2.0000      -0.356944        -9.7129
  17   2.0000      -0.344202        -9.3662
  18   2.0000      -0.337055        -9.1717
  19   2.0000      -0.305800        -8.3213
  20   2.0000      -0.229256        -6.2384
  21   2.0000      -0.210972        -5.7408
  22   0.0000      -0.054537        -1.4840
  23   0.0000       0.008095         0.2203
  24   0.0000       0.019834         0.5397
  25   0.0000       0.047563         1.2942
  26   0.0000       0.063341         1.7236

MULLIKEN ATOMIC CHARGES
-----------------------
   0 C :   -0.131354
   1 C :    0.012211
   2 C :    0.012997
   3 H :    0.018485
   4 C :   -0.128324
   5 H :    0.017265
   6 S :    0.084264
   7 H :    0.057233
   8 H :    0.057223
Sum of atomic charges:    0.0000000

LOEWDIN ATOMIC CHARGES
----------------------
   0 C :   -0.194063
   1 C :   -0.075180
   2 C :   -0.078529
   3 H :    0.036603
   4 C :   -0.201105
   5 H :    0.036550
   6 S :    0.409962
   7 H :    0.032767
   8 H :    0.032995

  Mayer bond orders larger than 0.100000
B(  0-C ,  1-C ) :   1.5211 B(  0-C ,  4-C ) :   0.1188 B(  0-C ,  6-S ) :   1.1748
B(  0-C ,  7-H ) :   0.9655 B(  1-C ,  2-C ) :   1.3216 B(  1-C ,  3-H ) :   0.9806
B(  2-C ,  4-C ) :   1.5178 B(  2-C ,  5-H ) :   0.9821 B(  4-C ,  6-S ) :   1.1910
B(  4-C ,  8-H ) :   0.9628

Dispersion correction           -0.013869240
FINAL SINGLE POINT ENERGY      -552.827122056331

DIPOLE MOMENT
-------------
                                X             Y             Z
Electronic contribution:      1.21159      -3.38680      -0.34714
Nuclear contribution   :     -1.26485       3.55159       0.36510
                        -----------------------------------------
Total Dipole Moment    :     -0.05326       0.16479       0.01797
                        -----------------------------------------
Magnitude (a.u.)       :      0.17411
Magnitude (Debye)      :      0.44256

Rotational constants in cm-1:     0.257629     0.174931     0.104188
Rotational constants in MHz :  7723.516313  5244.286134  3123.467043

                             ****ORCA TERMINATED NORMALLY****
TOTAL RUN TIME: 0 days 0 hours 0 minutes 57 seconds 668 msec
