                         Program Version 4.2.0 -  RELEASE  -
|  1> ! RI BP86 def2-SVP def2/J D3BJ TIGHTSCF  Opt Grid3 FinalGrid5
|  2> %maxcore 3000
|  3> %geom
|  4> optimizehydrogens true
|  5> end
|  6>
|  7>
|  8> *xyz 0 1
|  9> C	0.493011	0.355449	-0.042877
| 10> C	1.439436	-0.674174	-0.134080
| 11> C	2.769839	-0.232820	0.001790
| 12> H	1.159827	-1.726480	-0.284121
| 13> C	2.906377	1.152417	0.190179
| 14> H	3.635370	-0.899416	-0.004391
| 15> S	1.285512	1.888422	0.199187
| 16> H	-0.583612	0.295171	-0.103295
| 17> H	3.752968	1.818360	0.268933
| 18> **                         ****END OF INPUT****
 Total Charge           Charge          ....    0
 Multiplicity           Mult            ....    1
 Number of Electrons    NEL             ....   44
Dispersion correction           -0.013884958
FINAL SINGLE POINT ENERGY      -552.826168349944
Dispersion correction            ... done
Dispersion correction           -0.013869494
FINAL SINGLE POINT ENERGY      -552.826808472956
Dispersion correction            ... done
Dispersion correction           -0.013867443
FINAL SINGLE POINT ENERGY      -552.826934655809
Dispersion correction            ... done
FINAL SINGLE POINT ENERGY      -552.827002893321
Dispersion correction            ... done
Dispersion correction           -0.013868585
FINAL SINGLE POINT ENERGY      -552.827015752388
Dispersion correction            ... done
Dispersion correction           -0.013868900
FINAL SINGLE POINT ENERGY      -552.827018766154
Dispersion correction            ... done
                    ***********************HURRAY********************

CARTESIAN COORDINATES (ANGSTROEM)
---------------------------------
  C      0.488188    0.351749   -0.042472
  C      1.440873   -0.672892   -0.124117
  C      2.768726   -0.221789    0.004495
  H      1.164565   -1.727271   -0.266848
  C      2.896927    1.166253    0.177459
  H      3.642560   -0.888872   -0.031181
  S      1.271509    1.892193    0.181354
  H     -0.604315    0.288581   -0.108053
  H      3.789695    1.788976    0.300687

 Multiplicity           Mult            ....    1
 Number of Electrons    NEL             ....   44
 Basis Dimension        Dim             ....   94

ORBITAL ENERGIES
----------------

  NO   OCC          E(Eh)            E(eV)
   0   2.0000     -88.119045     -2397.8411
   1   2.0000      -9.944570      -270.6055
   2   2.0000      -9.942736      -270.5556
   3   2.0000      -9.923501      -270.0322
   4   2.0000      -9.922373      -270.0015
   5   2.0000      -7.714679      -209.9271
   6   2.0000      -5.741616      -156.2373
   7   2.0000      -5.737190      -156.1169
   8   2.0000      -5.734453      -156.0424
   9   2.0000      -0.792632       -21.5686
  10   2.0000      -0.663482       -18.0543
  11   2.0000      -0.643861       -17.5204
  12   2.0000      -0.508258       -13.8304
  13   2.0000      -0.492715       -13.4074
  14   2.0000      -0.460466       -12.5299
  15   2.0000      -0.370218       -10.0741
  16   2.0000      -0.357039        -9.7155
  17   2.0000      -0.344121        -9.3640
  18   2.0000      -0.337022        -9.1708
  19   2.0000      -0.305727        -8.3193
  20   2.0000      -0.229314        -6.2399
  21   2.0000      -0.210887        -5.7385
  22   0.0000      -0.054649        -1.4871
  23   0.0000       0.008050         0.2190
  24   0.0000       0.019852         0.5402
  25   0.0000       0.047518         1.2930
  26   0.0000       0.063278         1.7219

MULLIKEN ATOMIC CHARGES
-----------------------
   0 C :   -0.128285
   1 C :    0.012902
   2 C :    0.012298
   3 H :    0.017235
   4 C :   -0.131530
   5 H :    0.018555
   6 S :    0.084241
   7 H :    0.057293
   8 H :    0.057291
Sum of atomic charges:    0.0000000

LOEWDIN ATOMIC CHARGES
----------------------
   0 C :   -0.201357
   1 C :   -0.078635
   2 C :   -0.075113
   3 H :    0.036535
   4 C :   -0.193837
   5 H :    0.036631
   6 S :    0.409973
   7 H :    0.033024
   8 H :    0.032780

  Mayer bond orders larger than 0.100000
B(  0-C ,  1-C ) :   1.5167 B(  0-C ,  4-C ) :   0.1192 B(  0-C ,  6-S ) :   1.1917
B(  0-C ,  7-H ) :   0.9627 B(  1-C ,  2-C ) :   1.3226 B(  1-C ,  3-H ) :   0.9821
B(  2-C ,  4-C ) :   1.5204 B(  2-C ,  5-H ) :   0.9806 B(  4-C ,  6-S ) :   1.1745
B(  4-C ,  8-H ) :   0.9655

Dispersion correction           -0.013868850
FINAL SINGLE POINT ENERGY      -552.827018961981

DIPOLE MOMENT
-------------
                                X             Y             Z
Electronic contribution:     -1.21055       3.38732       0.34724
Nuclear contribution   :      1.26352      -3.55229      -0.36492
                        -----------------------------------------
Total Dipole Moment    :      0.05297      -0.16498      -0.01768
                        -----------------------------------------
Magnitude (a.u.)       :      0.17417
Magnitude (Debye)      :      0.44271

Rotational constants in cm-1:     0.257556     0.174917     0.104171
Rotational constants in MHz :  7721.347256  5243.870521  3122.963852

                             ****ORCA TERMINATED NORMALLY****
TOTAL RUN TIME: 0 days 0 hours 1 minutes 23 seconds 369 msec
