                         Program Version 4.2.0 -  RELEASE  -
|  1> ! RI BP86 def2-SVP def2/J D3BJ TIGHTSCF  Opt Grid3 FinalGrid5
|  2> %maxcore 3000
|  3> %geom
|  4> optimizehydrogens true
|  5> end
|  6>
|  7>
|  8> *xyz 0 1
|  9> C	-4.988025	-1.136063	0.140218
| 10> C	-4.074813	-0.099283	0.074032
| 11> C	-4.655928	-2.523804	0.046080
| 12> H	-6.034729	-0.819379	0.262793
| 13> C	-3.251580	-2.815610	-0.011218
| 14> C	-2.305747	-1.742331	-0.128166
| 15> C	-2.685411	-0.359923	-0.102436
| 16> C	-1.739924	0.713307	-0.217143
| 17> C	-0.917166	-2.003595	-0.310271
| 18> C	-0.003380	-0.967817	-0.376865
| 19> C	-0.334829	0.419461	-0.276099
| 20> H	1.042417	-1.286230	-0.505533
| 21> C	-4.605507	1.282524	0.182938
| 22> N	-3.663079	2.292086	-0.054676
| 23> C	-2.301760	2.086982	-0.366895
| 24> C	-2.687086	-4.188907	0.139191
| 25> C	-0.387004	-3.385290	-0.426686
| 26> N	-1.327690	-4.394487	-0.187190
| 27> O	-5.783751	1.532772	0.426251
| 28> O	-1.658473	3.059936	-0.759614
| 29> O	0.790529	-3.633449	-0.676842
| 30> O	-3.323477	-5.160378	0.543815
| 31> C	-4.134500	3.678253	-0.108633
| 32> H	-5.191865	3.677003	0.204278
| 33> H	-4.032556	4.078178	-1.135950
| 34> H	-3.524142	4.309711	0.564084
| 35> C	-0.856114	-5.780703	-0.137196
| 36> H	-1.477784	-6.413159	-0.798391
| 37> H	-0.941398	-6.178301	0.892610
| 38> H	0.196231	-5.780953	-0.466622
| 39> H	-5.499608	-3.193578	-0.031432
| 40> H	0.509944	1.087414	-0.194871
| 41> **                         ****END OF INPUT****
 Total Charge           Charge          ....    0
 Multiplicity           Mult            ....    1
 Number of Electrons    NEL             ....  152
Dispersion correction           -0.074966336
FINAL SINGLE POINT ENERGY     -1025.575377231973
Dispersion correction            ... done
Dispersion correction           -0.074959381
FINAL SINGLE POINT ENERGY     -1025.579541233413
Dispersion correction            ... done
Dispersion correction           -0.074981043
FINAL SINGLE POINT ENERGY     -1025.581814237562
Dispersion correction            ... done
FINAL SINGLE POINT ENERGY     -1025.582106781943
Dispersion correction            ... done
Dispersion correction           -0.075000012
FINAL SINGLE POINT ENERGY     -1025.582146224123
Dispersion correction            ... done
Dispersion correction           -0.075000830
FINAL SINGLE POINT ENERGY     -1025.582149968914
Dispersion correction            ... done
                    ***********************HURRAY********************

CARTESIAN COORDINATES (ANGSTROEM)
---------------------------------
  C     -4.990609   -1.129394    0.116292
  C     -4.073579   -0.095235    0.063179
  C     -4.661967   -2.517767    0.019376
  H     -6.045919   -0.834491    0.230741
  C     -3.258056   -2.813765   -0.025875
  C     -2.307813   -1.742995   -0.129282
  C     -2.683388   -0.359515   -0.101243
  C     -1.733511    0.711198   -0.202413
  C     -0.918390   -2.007872   -0.299352
  C     -0.000786   -0.974715   -0.352871
  C     -0.328844    0.413164   -0.249323
  H      1.053929   -1.269676   -0.472235
  C     -4.600967    1.287769    0.172958
  N     -3.653183    2.295345   -0.051413
  C     -2.289613    2.087265   -0.351608
  C     -2.699302   -4.189465    0.124004
  C     -0.391463   -3.390730   -0.416643
  N     -1.337522   -4.397955   -0.190372
  O     -5.780677    1.540706    0.406176
  O     -1.639600    3.059837   -0.734063
  O      0.787607   -3.641547   -0.656702
  O     -3.342527   -5.160626    0.518435
  C     -4.119744    3.683212   -0.103909
  H     -5.176619    3.686817    0.210340
  H     -4.017640    4.082962   -1.131390
  H     -3.503854    4.311282    0.566720
  C     -0.870769   -5.785854   -0.141838
  H     -1.496892   -6.414910   -0.801894
  H     -0.957157   -6.183727    0.887874
  H      0.181405   -5.790410   -0.471539
  H     -5.408806   -3.319750    0.079302
  H      0.418052    1.215229   -0.307873

 Multiplicity           Mult            ....    1
 Number of Electrons    NEL             ....  152
 Basis Dimension        Dim             ....  358

ORBITAL ENERGIES
----------------

  NO   OCC          E(Eh)            E(eV)
   0   2.0000     -18.781238      -511.0635
   1   2.0000     -18.780785      -511.0511
   2   2.0000     -18.780592      -511.0459
   3   2.0000     -18.780427      -511.0414
   4   2.0000     -14.085224      -383.2784
   5   2.0000     -14.085208      -383.2780
   6   2.0000     -10.041865      -273.2530
   7   2.0000     -10.041566      -273.2449
   8   2.0000     -10.039392      -273.1857
   9   2.0000     -10.039242      -273.1817
  10   2.0000      -9.975042      -271.4347
  11   2.0000      -9.974892      -271.4306
  12   2.0000      -9.973024      -271.3798
  13   2.0000      -9.972907      -271.3766
  14   2.0000      -9.971216      -271.3306
  15   2.0000      -9.971141      -271.3285
  16   2.0000      -9.964107      -271.1371
  17   2.0000      -9.964001      -271.1342
  18   2.0000      -9.959641      -271.0156
  19   2.0000      -9.959475      -271.0111
  20   2.0000      -9.957094      -270.9463
  21   2.0000      -9.957000      -270.9437
  22   2.0000      -0.981104       -26.6972
  23   2.0000      -0.980780       -26.6884
  24   2.0000      -0.960127       -26.1264
  25   2.0000      -0.959886       -26.1198
  26   2.0000      -0.869413       -23.6579
  27   2.0000      -0.867846       -23.6153
  28   2.0000      -0.835536       -22.7361
  29   2.0000      -0.782391       -21.2899
  30   2.0000      -0.763498       -20.7758
  31   2.0000      -0.708155       -19.2699
  32   2.0000      -0.706694       -19.2301
  33   2.0000      -0.680942       -18.5294
  34   2.0000      -0.652456       -17.7542
  35   2.0000      -0.643993       -17.5239
  36   2.0000      -0.609527       -16.5861
  37   2.0000      -0.592204       -16.1147
  38   2.0000      -0.591314       -16.0905
  39   2.0000      -0.582473       -15.8499
  40   2.0000      -0.537484       -14.6257
  41   2.0000      -0.514419       -13.9981
  42   2.0000      -0.506940       -13.7945
  43   2.0000      -0.486828       -13.2473
  44   2.0000      -0.468909       -12.7597
  45   2.0000      -0.452979       -12.3262
  46   2.0000      -0.447750       -12.1839
  47   2.0000      -0.446223       -12.1423
  48   2.0000      -0.438305       -11.9269
  49   2.0000      -0.434363       -11.8196
  50   2.0000      -0.418307       -11.3827
  51   2.0000      -0.409079       -11.1316
  52   2.0000      -0.408666       -11.1204
  53   2.0000      -0.398457       -10.8426
  54   2.0000      -0.392285       -10.6746
  55   2.0000      -0.391617       -10.6564
  56   2.0000      -0.388317       -10.5666
  57   2.0000      -0.381286       -10.3753
  58   2.0000      -0.373137       -10.1536
  59   2.0000      -0.370733       -10.0881
  60   2.0000      -0.370464       -10.0809
  61   2.0000      -0.365349        -9.9417
  62   2.0000      -0.357182        -9.7194
  63   2.0000      -0.352792        -9.6000
  64   2.0000      -0.351120        -9.5545
  65   2.0000      -0.330705        -8.9989
  66   2.0000      -0.321046        -8.7361
  67   2.0000      -0.292286        -7.9535
  68   2.0000      -0.270754        -7.3676
  69   2.0000      -0.260111        -7.0780
  70   2.0000      -0.256566        -6.9815
  71   2.0000      -0.254191        -6.9169
  72   2.0000      -0.252436        -6.8691
  73   2.0000      -0.242467        -6.5979
  74   2.0000      -0.237579        -6.4648
  75   2.0000      -0.233405        -6.3513
  76   0.0000      -0.157440        -4.2842
  77   0.0000      -0.100528        -2.7355
  78   0.0000      -0.089018        -2.4223
  79   0.0000      -0.080723        -2.1966
  80   0.0000      -0.029774        -0.8102

MULLIKEN ATOMIC CHARGES
-----------------------
   0 C :   -0.032708
   1 C :   -0.054545
   2 C :    0.004879
   3 H :    0.033775
   4 C :   -0.030806
   5 C :    0.120504
   6 C :    0.120571
   7 C :   -0.031551
   8 C :   -0.054593
   9 C :   -0.032799
  10 C :    0.005350
  11 H :    0.033906
  12 C :    0.147890
  13 N :   -0.253202
  14 C :    0.123858
  15 C :    0.124129
  16 C :    0.147838
  17 N :   -0.253419
  18 O :   -0.174243
  19 O :   -0.178173
  20 O :   -0.174805
  21 O :   -0.176919
  22 C :    0.071272
  23 H :    0.069234
  24 H :    0.061602
  25 H :    0.058215
  26 C :    0.071213
  27 H :    0.058112
  28 H :    0.061697
  29 H :    0.069263
  30 H :    0.032174
  31 H :    0.032281
Sum of atomic charges:    0.0000000

LOEWDIN ATOMIC CHARGES
----------------------
   0 C :    0.019209
   1 C :   -0.047941
   2 C :    0.027151
   3 H :    0.047676
   4 C :   -0.039179
   5 C :   -0.001753
   6 C :   -0.001746
   7 C :   -0.039299
   8 C :   -0.047818
   9 C :    0.019007
  10 C :    0.027604
  11 H :    0.047734
  12 C :    0.065537
  13 N :   -0.012641
  14 C :    0.067831
  15 C :    0.068190
  16 C :    0.065225
  17 N :   -0.012874
  18 O :   -0.158387
  19 O :   -0.155200
  20 O :   -0.158859
  21 O :   -0.153904
  22 C :    0.020589
  23 H :    0.037559
  24 H :    0.039659
  25 H :    0.038741
  26 C :    0.020548
  27 H :    0.038692
  28 H :    0.039658
  29 H :    0.037641
  30 H :    0.050710
  31 H :    0.050641

  Mayer bond orders larger than 0.100000
B(  0-C ,  1-C ) :   1.4672 B(  0-C ,  2-C ) :   1.2348 B(  0-C ,  3-H ) :   0.9559
B(  1-C ,  6-C ) :   1.2223 B(  1-C , 12-C ) :   0.9268 B(  2-C ,  4-C ) :   1.3833
B(  2-C , 30-H ) :   0.9828 B(  4-C ,  5-C ) :   1.2394 B(  4-C , 15-C ) :   0.9483
B(  5-C ,  6-C ) :   1.2433 B(  5-C ,  8-C ) :   1.2224 B(  6-C ,  7-C ) :   1.2395
B(  7-C , 10-C ) :   1.3825 B(  7-C , 14-C ) :   0.9493 B(  8-C ,  9-C ) :   1.4670
B(  8-C , 16-C ) :   0.9263 B(  9-C , 10-C ) :   1.2356 B(  9-C , 11-H ) :   0.9559
B( 10-C , 31-H ) :   0.9824 B( 12-C , 13-N ) :   1.0743 B( 12-C , 18-O ) :   2.0901
B( 13-N , 14-C ) :   1.0513 B( 13-N , 22-C ) :   0.9502 B( 14-C , 19-O ) :   2.1009
B( 15-C , 17-N ) :   1.0489 B( 15-C , 21-O ) :   2.1027 B( 16-C , 17-N ) :   1.0759
B( 16-C , 20-O ) :   2.0893 B( 17-N , 26-C ) :   0.9503 B( 22-C , 23-H ) :   0.9438
B( 22-C , 24-H ) :   0.9655 B( 22-C , 25-H ) :   0.9655 B( 26-C , 27-H ) :   0.9655
B( 26-C , 28-H ) :   0.9656 B( 26-C , 29-H ) :   0.9438

Dispersion correction           -0.075000979
FINAL SINGLE POINT ENERGY     -1025.582150584659

DIPOLE MOMENT
-------------
                                X             Y             Z
Electronic contribution:     -0.00568      -0.00449       0.02733
Nuclear contribution   :     -0.00186      -0.00360      -0.03113
                        -----------------------------------------
Total Dipole Moment    :     -0.00754      -0.00809      -0.00380
                        -----------------------------------------
Magnitude (a.u.)       :      0.01169
Magnitude (Debye)      :      0.02972

Rotational constants in cm-1:     0.020381     0.006760     0.005106
Rotational constants in MHz :   611.013074   202.647178   153.087311

                             ****ORCA TERMINATED NORMALLY****
TOTAL RUN TIME: 0 days 0 hours 6 minutes 38 seconds 774 msec
