                         Program Version 4.2.0 -  RELEASE  -
|  1> ! RI BP86 def2-SVP def2/J D3BJ TIGHTSCF  Opt Grid3 FinalGrid5
|  2> %maxcore 3000
|  3> %geom
|  4> Constraints
|  5> {D 0 2 75 81 0.0 C}
|  6> {D 4 2 75 76 0.0 C}
|  7> {D 9 10 30 36 0.0 C}
|  8> {D 7 10 30 31 0.0 C}
|  9> {D 36 34 37 38 0.0 C}
| 10> {D 32 34 37 43 0.0 C}
| 11> {D 43 41 44 45 0.0 C}
| 12> {D 39 41 44 48 0.0 C}
| 13> end
| 14> end
| 15>
| 16> *xyz 0 1
| 17> C	-7.113603	-1.664364	-0.000583
| 18> C	-6.198807	-0.628903	-0.068575
| 19> C	-6.782314	-3.052158	-0.095368
| 20> H	-8.160402	-1.346509	0.117975
| 21> C	-5.378702	-3.346375	-0.145905
| 22> C	-4.431070	-2.274896	-0.263663
| 23> C	-4.809409	-0.892209	-0.240334
| 24> C	-3.861911	0.179155	-0.354444
| 25> C	-3.042688	-2.538705	-0.443813
| 26> C	-2.127077	-1.504361	-0.511208
| 27> C	-2.457630	-0.117485	-0.404715
| 28> H	-1.081308	-1.823696	-0.637665
| 29> C	-6.727703	0.754360	0.031334
| 30> N	-5.783607	1.761256	-0.211505
| 31> C	-4.420126	1.553260	-0.513337
| 32> C	-4.816968	-4.720127	0.011288
| 33> C	-2.515106	-3.921759	-0.556318
| 34> N	-3.457187	-4.928692	-0.311938
| 35> O	-7.906468	1.007596	0.269051
| 36> O	-3.772560	2.522842	-0.906993
| 37> O	-1.337994	-4.172706	-0.805625
| 38> O	-5.455821	-5.688305	0.419613
| 39> C	-6.253428	3.147431	-0.277436
| 40> H	-7.312429	3.148964	0.029842
| 41> H	-6.145540	3.540159	-1.306972
| 42> H	-5.645860	3.783405	0.393542
| 43> C	-2.987362	-6.315185	-0.254685
| 44> H	-3.609428	-6.950389	-0.912855
| 45> H	-3.073828	-6.707627	0.777038
| 46> H	-1.934706	-6.318251	-0.583091
| 47> C	-1.310382	0.793442	-0.313212
| 48> C	-1.180201	2.171435	-0.075984
| 49> C	0.149602	2.615420	0.061641
| 50> H	-2.047396	2.834625	-0.036514
| 51> C	1.099493	1.593955	-0.068479
| 52> H	0.425619	3.664039	0.241501
| 53> S	0.311258	0.063861	-0.346360
| 54> C	2.534569	1.680065	-0.008960
| 55> C	3.484768	0.658994	-0.147820
| 56> C	4.814172	1.101629	-0.008527
| 57> H	3.208237	-0.387798	-0.337038
| 58> C	4.945869	2.478147	0.238617
| 59> H	5.682097	0.439481	-0.053904
| 60> S	3.322578	3.207099	0.280609
| 61> C	6.095099	3.385582	0.330404
| 62> C	5.755500	4.777146	0.444960
| 63> C	6.674815	5.805512	0.394371
| 64> H	4.706568	5.089548	0.560177
| 65> C	7.497184	3.073630	0.274604
| 66> C	8.455965	4.139746	0.152608
| 67> C	8.051346	5.512243	0.207759
| 68> C	8.995880	6.563446	0.090269
| 69> C	9.847281	3.882374	-0.041187
| 70> C	10.349833	6.273491	-0.105933
| 71> C	10.765039	4.932074	-0.177422
| 72> H	11.059693	7.107723	-0.199703
| 73> H	11.819236	4.663689	-0.338861
| 74> C	6.192099	7.212924	0.509009
| 75> C	8.553827	7.983532	0.178172
| 76> N	7.177311	8.212848	0.389282
| 77> C	8.050343	1.698752	0.434355
| 78> C	10.365839	2.495896	-0.115066
| 79> N	9.416471	1.493434	0.145085
| 80> C	9.885859	0.107825	0.226851
| 81> H	9.287312	-0.533755	-0.447080
| 82> H	9.764323	-0.277582	1.257594
| 83> H	10.948650	0.104841	-0.066975
| 84> C	6.762342	9.614427	0.483680
| 85> H	5.669845	9.629527	0.631927
| 86> H	7.041062	10.153138	-0.442070
| 87> H	7.278752	10.105594	1.330810
| 88> O	5.009277	7.489011	0.690340
| 89> O	9.328778	8.930116	0.080045
| 90> O	11.541957	2.229993	-0.352672
| 91> O	7.400332	0.727745	0.823248
| 92> C	-7.930893	-3.967016	-0.180800
| 93> C	-8.061189	-5.344144	-0.397459
| 94> C	-9.403123	-5.787577	-0.530714
| 95> H	-7.196239	-6.010654	-0.425996
| 96> C	-10.324004	-4.758629	-0.414790
| 97> H	-9.684217	-6.836672	-0.695718
| 98> S	-9.557546	-3.240874	-0.155603
| 99> H	-11.419039	-4.813550	-0.460826
|100> **                         ****END OF INPUT****
 Total Charge           Charge          ....    0
 Multiplicity           Mult            ....    1
 Number of Electrons    NEL             ....  428
Dispersion correction           -0.233033085
FINAL SINGLE POINT ENERGY     -3704.951565636088
Dispersion correction            ... done
Dispersion correction           -0.232867897
FINAL SINGLE POINT ENERGY     -3704.951312640878
Dispersion correction            ... done
Dispersion correction           -0.232969877
FINAL SINGLE POINT ENERGY     -3704.951639483601
Dispersion correction            ... done
Dispersion correction           -0.232980639
FINAL SINGLE POINT ENERGY     -3704.951639384052
Dispersion correction            ... done
Dispersion correction           -0.232976440
FINAL SINGLE POINT ENERGY     -3704.951645245138
Dispersion correction            ... done
                    ***********************HURRAY********************

CARTESIAN COORDINATES (ANGSTROEM)
---------------------------------
  C     -7.112961   -1.665777   -0.000324
  C     -6.199749   -0.628997   -0.066510
  C     -6.780864   -3.053518   -0.094462
  H     -8.159665   -1.349093    0.122251
  C     -5.376516   -3.345324   -0.151760
  C     -4.430683   -2.272045   -0.268708
  C     -4.810347   -0.889637   -0.242978
  C     -3.864860    0.183593   -0.357685
  C     -3.042102   -2.533309   -0.450813
  C     -2.128316   -1.497531   -0.517407
  C     -2.459765   -0.110253   -0.416641
  H     -1.082519   -1.815944   -0.646075
  C     -6.730443    0.752810    0.042396
  N     -5.788015    1.762372   -0.195218
  C     -4.426696    1.557268   -0.507437
  C     -4.812022   -4.718621   -0.001351
  C     -2.511940   -3.915004   -0.567228
  N     -3.452626   -4.924201   -0.327732
  O     -7.908687    1.003058    0.285709
  O     -3.783409    2.530222   -0.900156
  O     -1.334407   -4.163163   -0.817384
  O     -5.448413   -5.690092    0.403273
  C     -6.259436    3.148539   -0.249175
  H     -7.316801    3.147289    0.063736
  H     -6.157492    3.548464   -1.276492
  H     -5.649078    3.779997    0.423542
  C     -2.981050   -6.310417   -0.277738
  H     -3.602720   -6.942873   -0.938933
  H     -3.066334   -6.708015    0.752068
  H     -1.928705   -6.310667   -0.607164
  C     -1.311478    0.797685   -0.306229
  C     -1.176887    2.182561   -0.116685
  C      0.153751    2.624643    0.020850
  H     -2.042118    2.849343   -0.110065
  C      1.100213    1.595818   -0.069633
  H      0.432499    3.677152    0.171405
  S      0.307974    0.061850   -0.312659
  C      2.534672    1.676130    0.010866
  C      3.481097    0.646507   -0.080337
  C      4.811500    1.087861    0.055533
  H      3.201488   -0.405799   -0.230378
  C      4.948038    2.473098    0.243922
  H      5.677031    0.421265    0.049352
  S      3.327173    3.209103    0.252930
  C      6.098434    3.378019    0.350937
  C      5.756961    4.770482    0.451156
  C      6.673914    5.800476    0.396372
  H      4.707628    5.081872    0.565403
  C      7.501647    3.069270    0.287263
  C      8.457736    4.137343    0.158672
  C      8.050877    5.509322    0.210854
  C      8.992868    6.562214    0.088061
  C      9.848652    3.882704   -0.042759
  C     10.346733    6.274646   -0.111878
  C     10.763861    4.933939   -0.184087
  H     11.054650    7.110056   -0.209716
  H     11.817599    4.667195   -0.351123
  C      6.187734    7.207304    0.503820
  C      8.548005    7.981657    0.172061
  N      7.170924    8.208889    0.381685
  C      8.060068    1.696087    0.443989
  C     10.369248    2.497495   -0.122752
  N      9.423121    1.492896    0.140347
  C      9.895630    0.107973    0.216103
  H      9.291153   -0.533583   -0.452536
  H      9.785736   -0.278387    1.247771
  H     10.955196    0.106520   -0.089120
  C      6.752982    9.609901    0.471041
  H      5.660569    9.623108    0.620118
  H      7.029524   10.145771   -0.457026
  H      7.269111   10.105404    1.315791
  O      5.004011    7.481488    0.682044
  O      9.321176    8.929471    0.071930
  O     11.544271    2.234113   -0.368407
  O      7.417449    0.723917    0.842360
  C     -7.929995   -3.965781   -0.200037
  C     -8.063312   -5.347735   -0.381314
  C     -9.405584   -5.789433   -0.517865
  H     -7.199994   -6.016935   -0.382886
  C    -10.323897   -4.755196   -0.433895
  H     -9.688734   -6.841075   -0.661797
  S     -9.554937   -3.235090   -0.196803
  H    -11.418538   -4.807190   -0.491353

 Multiplicity           Mult            ....    1
 Number of Electrons    NEL             ....  428
 Basis Dimension        Dim             ....  958

ORBITAL ENERGIES
----------------

  NO   OCC          E(Eh)            E(eV)
   0   2.0000     -88.140131     -2398.4149
   1   2.0000     -88.139343     -2398.3935
   2   2.0000     -88.133780     -2398.2421
   3   2.0000     -18.781472      -511.0698
   4   2.0000     -18.780548      -511.0447
   5   2.0000     -18.780107      -511.0327
   6   2.0000     -18.779024      -511.0032
   7   2.0000     -18.778742      -510.9956
   8   2.0000     -18.777822      -510.9705
   9   2.0000     -18.777480      -510.9612
  10   2.0000     -18.775034      -510.8946
  11   2.0000     -14.085150      -383.2764
  12   2.0000     -14.083846      -383.2409
  13   2.0000     -14.083707      -383.2371
  14   2.0000     -14.081911      -383.1883
  15   2.0000     -10.041541      -273.2442
  16   2.0000     -10.041240      -273.2360
  17   2.0000     -10.041116      -273.2327
  18   2.0000     -10.040070      -273.2042
  19   2.0000     -10.037934      -273.1461
  20   2.0000     -10.036636      -273.1107
  21   2.0000     -10.036307      -273.1018
  22   2.0000     -10.034096      -273.0416
  23   2.0000      -9.984636      -271.6958
  24   2.0000      -9.980843      -271.5926
  25   2.0000      -9.979917      -271.5674
  26   2.0000      -9.979915      -271.5673
  27   2.0000      -9.978795      -271.5368
  28   2.0000      -9.976933      -271.4862
  29   2.0000      -9.976538      -271.4754
  30   2.0000      -9.970125      -271.3009
  31   2.0000      -9.969603      -271.2867
  32   2.0000      -9.969587      -271.2862
  33   2.0000      -9.968510      -271.2569
  34   2.0000      -9.968343      -271.2524
  35   2.0000      -9.968025      -271.2438
  36   2.0000      -9.967821      -271.2382
  37   2.0000      -9.964603      -271.1506
  38   2.0000      -9.962228      -271.0860
  39   2.0000      -9.960751      -271.0458
  40   2.0000      -9.959803      -271.0200
  41   2.0000      -9.959414      -271.0094
  42   2.0000      -9.959172      -271.0028
  43   2.0000      -9.959035      -270.9991
  44   2.0000      -9.958536      -270.9855
  45   2.0000      -9.956773      -270.9376
  46   2.0000      -9.956751      -270.9370
  47   2.0000      -9.956654      -270.9343
  48   2.0000      -9.956013      -270.9169
  49   2.0000      -9.954723      -270.8818
  50   2.0000      -9.954509      -270.8760
  51   2.0000      -9.953039      -270.8360
  52   2.0000      -9.952778      -270.8289
  53   2.0000      -9.945202      -270.6227
  54   2.0000      -9.944917      -270.6149
  55   2.0000      -9.939245      -270.4606
  56   2.0000      -9.938324      -270.4356
  57   2.0000      -9.936464      -270.3849
  58   2.0000      -9.931884      -270.2603
  59   2.0000      -7.735853      -210.5032
  60   2.0000      -7.735061      -210.4817
  61   2.0000      -7.729773      -210.3378
  62   2.0000      -5.762971      -156.8184
  63   2.0000      -5.762187      -156.7971
  64   2.0000      -5.758639      -156.7005
  65   2.0000      -5.757842      -156.6788
  66   2.0000      -5.756721      -156.6483
  67   2.0000      -5.754953      -156.6002
  68   2.0000      -5.754163      -156.5787
  69   2.0000      -5.752233      -156.5262
  70   2.0000      -5.749399      -156.4491
  71   2.0000      -0.980865       -26.6907
  72   2.0000      -0.980613       -26.6838
  73   2.0000      -0.979384       -26.6504
  74   2.0000      -0.978536       -26.6273
  75   2.0000      -0.959907       -26.1204
  76   2.0000      -0.959700       -26.1148
  77   2.0000      -0.959585       -26.1116
  78   2.0000      -0.957256       -26.0482
  79   2.0000      -0.868563       -23.6348
  80   2.0000      -0.868223       -23.6256
  81   2.0000      -0.866888       -23.5892
  82   2.0000      -0.865015       -23.5383
  83   2.0000      -0.842488       -22.9253
  84   2.0000      -0.837104       -22.7787
  85   2.0000      -0.832471       -22.6527
  86   2.0000      -0.821713       -22.3599
  87   2.0000      -0.816365       -22.2144
  88   2.0000      -0.787058       -21.4169
  89   2.0000      -0.782689       -21.2981
  90   2.0000      -0.760896       -20.7050
  91   2.0000      -0.760475       -20.6936
  92   2.0000      -0.738145       -20.0859
  93   2.0000      -0.725253       -19.7351
  94   2.0000      -0.706345       -19.2206
  95   2.0000      -0.705675       -19.2024
  96   2.0000      -0.700662       -19.0660
  97   2.0000      -0.693666       -18.8756
  98   2.0000      -0.684657       -18.6305
  99   2.0000      -0.679868       -18.5001
 100   2.0000      -0.679429       -18.4882
 101   2.0000      -0.678426       -18.4609
 102   2.0000      -0.669857       -18.2277
 103   2.0000      -0.652761       -17.7625
 104   2.0000      -0.650872       -17.7111
 105   2.0000      -0.648454       -17.6453
 106   2.0000      -0.637906       -17.3583
 107   2.0000      -0.631777       -17.1915
 108   2.0000      -0.610474       -16.6118
 109   2.0000      -0.605729       -16.4827
 110   2.0000      -0.597826       -16.2677
 111   2.0000      -0.593158       -16.1406
 112   2.0000      -0.591101       -16.0847
 113   2.0000      -0.588705       -16.0195
 114   2.0000      -0.587135       -15.9768
 115   2.0000      -0.584209       -15.8971
 116   2.0000      -0.558183       -15.1889
 117   2.0000      -0.544776       -14.8241
 118   2.0000      -0.541210       -14.7271
 119   2.0000      -0.532669       -14.4947
 120   2.0000      -0.521603       -14.1935
 121   2.0000      -0.520293       -14.1579
 122   2.0000      -0.513098       -13.9621
 123   2.0000      -0.511213       -13.9108
 124   2.0000      -0.505506       -13.7555
 125   2.0000      -0.497673       -13.5424
 126   2.0000      -0.495386       -13.4801
 127   2.0000      -0.491059       -13.3624
 128   2.0000      -0.488112       -13.2822
 129   2.0000      -0.476038       -12.9537
 130   2.0000      -0.470362       -12.7992
 131   2.0000      -0.468268       -12.7422
 132   2.0000      -0.461313       -12.5530
 133   2.0000      -0.455475       -12.3941
 134   2.0000      -0.452445       -12.3117
 135   2.0000      -0.450684       -12.2637
 136   2.0000      -0.448042       -12.1918
 137   2.0000      -0.446081       -12.1385
 138   2.0000      -0.444047       -12.0831
 139   2.0000      -0.439023       -11.9464
 140   2.0000      -0.437307       -11.8997
 141   2.0000      -0.433197       -11.7879
 142   2.0000      -0.431205       -11.7337
 143   2.0000      -0.425857       -11.5882
 144   2.0000      -0.421481       -11.4691
 145   2.0000      -0.419942       -11.4272
 146   2.0000      -0.418269       -11.3817
 147   2.0000      -0.409135       -11.1331
 148   2.0000      -0.407334       -11.0841
 149   2.0000      -0.403676       -10.9846
 150   2.0000      -0.401410       -10.9229
 151   2.0000      -0.399981       -10.8840
 152   2.0000      -0.399479       -10.8704
 153   2.0000      -0.397141       -10.8067
 154   2.0000      -0.396797       -10.7974
 155   2.0000      -0.394694       -10.7402
 156   2.0000      -0.390571       -10.6280
 157   2.0000      -0.389100       -10.5880
 158   2.0000      -0.387128       -10.5343
 159   2.0000      -0.384722       -10.4688
 160   2.0000      -0.383982       -10.4487
 161   2.0000      -0.379729       -10.3329
 162   2.0000      -0.375808       -10.2263
 163   2.0000      -0.375338       -10.2135
 164   2.0000      -0.373149       -10.1539
 165   2.0000      -0.372713       -10.1420
 166   2.0000      -0.371787       -10.1168
 167   2.0000      -0.371129       -10.0989
 168   2.0000      -0.370293       -10.0762
 169   2.0000      -0.369227       -10.0472
 170   2.0000      -0.365499        -9.9457
 171   2.0000      -0.364129        -9.9085
 172   2.0000      -0.363107        -9.8807
 173   2.0000      -0.362822        -9.8729
 174   2.0000      -0.361004        -9.8234
 175   2.0000      -0.355866        -9.6836
 176   2.0000      -0.355507        -9.6738
 177   2.0000      -0.354560        -9.6481
 178   2.0000      -0.351519        -9.5653
 179   2.0000      -0.349201        -9.5022
 180   2.0000      -0.348317        -9.4782
 181   2.0000      -0.347124        -9.4457
 182   2.0000      -0.342899        -9.3307
 183   2.0000      -0.341433        -9.2909
 184   2.0000      -0.335785        -9.1372
 185   2.0000      -0.328770        -8.9463
 186   2.0000      -0.320095        -8.7102
 187   2.0000      -0.318787        -8.6746
 188   2.0000      -0.313532        -8.5316
 189   2.0000      -0.308983        -8.4079
 190   2.0000      -0.296487        -8.0678
 191   2.0000      -0.289990        -7.8910
 192   2.0000      -0.289036        -7.8651
 193   2.0000      -0.277845        -7.5606
 194   2.0000      -0.259787        -7.0692
 195   2.0000      -0.259503        -7.0614
 196   2.0000      -0.258174        -7.0253
 197   2.0000      -0.256175        -6.9709
 198   2.0000      -0.255063        -6.9406
 199   2.0000      -0.254584        -6.9276
 200   2.0000      -0.252704        -6.8764
 201   2.0000      -0.251378        -6.8403
 202   2.0000      -0.250001        -6.8029
 203   2.0000      -0.249035        -6.7766
 204   2.0000      -0.245312        -6.6753
 205   2.0000      -0.243829        -6.6349
 206   2.0000      -0.240272        -6.5381
 207   2.0000      -0.238779        -6.4975
 208   2.0000      -0.237313        -6.4576
 209   2.0000      -0.235804        -6.4165
 210   2.0000      -0.231708        -6.3051
 211   2.0000      -0.230835        -6.2814
 212   2.0000      -0.219076        -5.9614
 213   2.0000      -0.198708        -5.4071
 214   0.0000      -0.156081        -4.2472
 215   0.0000      -0.150049        -4.0831
 216   0.0000      -0.121091        -3.2950
 217   0.0000      -0.104406        -2.8410
 218   0.0000      -0.098155        -2.6709

MULLIKEN ATOMIC CHARGES
-----------------------
   0 C :   -0.132796
   1 C :   -0.059128
   2 C :    0.156002
   3 H :    0.040730
   4 C :   -0.043394
   5 C :    0.122595
   6 C :    0.119970
   7 C :   -0.040690
   8 C :   -0.058768
   9 C :   -0.130588
  10 C :    0.145963
  11 H :    0.040050
  12 C :    0.144623
  13 N :   -0.249466
  14 C :    0.115752
  15 C :    0.116958
  16 C :    0.144980
  17 N :   -0.249847
  18 O :   -0.176744
  19 O :   -0.195601
  20 O :   -0.178589
  21 O :   -0.192040
  22 C :    0.074711
  23 H :    0.069688
  24 H :    0.060734
  25 H :    0.054366
  26 C :    0.074632
  27 H :    0.054327
  28 H :    0.060871
  29 H :    0.069188
  30 C :   -0.101973
  31 C :    0.019455
  32 C :   -0.015734
  33 H :    0.032343
  34 C :   -0.023108
  35 H :    0.019749
  36 S :    0.094681
  37 C :   -0.021725
  38 C :   -0.015629
  39 C :    0.022115
  40 H :    0.020590
  41 C :   -0.105424
  42 H :    0.033447
  43 S :    0.093185
  44 C :    0.152283
  45 C :   -0.136818
  46 C :   -0.040391
  47 H :    0.039519
  48 C :   -0.051942
  49 C :    0.136467
  50 C :    0.134264
  51 C :   -0.034776
  52 C :   -0.074417
  53 C :   -0.031135
  54 C :   -0.007751
  55 H :    0.025081
  56 H :    0.027975
  57 C :    0.146197
  58 C :    0.128598
  59 N :   -0.259760
  60 C :    0.118021
  61 C :    0.141573
  62 N :   -0.251218
  63 C :    0.074556
  64 H :    0.053516
  65 H :    0.059871
  66 H :    0.069212
  67 C :    0.071573
  68 H :    0.069046
  69 H :    0.060430
  70 H :    0.060456
  71 O :   -0.172104
  72 O :   -0.172733
  73 O :   -0.177266
  74 O :   -0.198828
  75 C :   -0.150736
  76 C :    0.026405
  77 C :    0.011068
  78 H :    0.033565
  79 C :   -0.065957
  80 H :    0.019230
  81 S :    0.095454
  82 H :    0.061015
Sum of atomic charges:   -0.0000000

LOEWDIN ATOMIC CHARGES
----------------------
   0 C :    0.015727
   1 C :   -0.052567
   2 C :    0.002073
   3 H :    0.030587
   4 C :   -0.053979
   5 C :   -0.000543
   6 C :   -0.001602
   7 C :   -0.051958
   8 C :   -0.052079
   9 C :    0.014810
  10 C :   -0.005280
  11 H :    0.030101
  12 C :    0.066362
  13 N :   -0.010274
  14 C :    0.076371
  15 C :    0.077318
  16 C :    0.066157
  17 N :   -0.010653
  18 O :   -0.162198
  19 O :   -0.154644
  20 O :   -0.163880
  21 O :   -0.151587
  22 C :    0.020132
  23 H :    0.037855
  24 H :    0.039298
  25 H :    0.036955
  26 C :    0.020034
  27 H :    0.036935
  28 H :    0.039315
  29 H :    0.037691
  30 C :   -0.150124
  31 C :   -0.030151
  32 C :   -0.055599
  33 H :    0.038744
  34 C :   -0.176473
  35 H :    0.039116
  36 S :    0.451370
  37 C :   -0.173549
  38 C :   -0.056344
  39 C :   -0.027090
  40 H :    0.039466
  41 C :   -0.152379
  42 H :    0.039202
  43 S :    0.450719
  44 C :    0.000811
  45 C :    0.015886
  46 C :   -0.048206
  47 H :    0.030038
  48 C :   -0.052812
  49 C :    0.003000
  50 C :   -0.006240
  51 C :   -0.047132
  52 C :   -0.049802
  53 C :    0.014991
  54 C :    0.021066
  55 H :    0.047533
  56 H :    0.048004
  57 C :    0.071722
  58 C :    0.069665
  59 N :   -0.014982
  60 C :    0.074267
  61 C :    0.063864
  62 N :   -0.011618
  63 C :    0.019684
  64 H :    0.036481
  65 H :    0.038842
  66 H :    0.037401
  67 C :    0.020239
  68 H :    0.037665
  69 H :    0.039564
  70 H :    0.039604
  71 O :   -0.158100
  72 O :   -0.154531
  73 O :   -0.162529
  74 O :   -0.157674
  75 C :   -0.164264
  76 C :   -0.035731
  77 C :   -0.066972
  78 H :    0.036419
  79 C :   -0.177740
  80 H :    0.040340
  81 S :    0.450501
  82 H :    0.037357

  Mayer bond orders larger than 0.100000
B(  0-C ,  1-C ) :   1.5015 B(  0-C ,  2-C ) :   1.1697 B(  0-C ,  3-H ) :   0.9304
B(  1-C ,  6-C ) :   1.1864 B(  1-C , 12-C ) :   0.9215 B(  2-C ,  4-C ) :   1.3181
B(  2-C , 75-C ) :   1.1641 B(  4-C ,  5-C ) :   1.2658 B(  4-C , 15-C ) :   0.9556
B(  5-C ,  6-C ) :   1.2213 B(  5-C ,  8-C ) :   1.1869 B(  6-C ,  7-C ) :   1.2660
B(  7-C , 10-C ) :   1.3115 B(  7-C , 14-C ) :   0.9574 B(  8-C ,  9-C ) :   1.5022
B(  8-C , 16-C ) :   0.9201 B(  9-C , 10-C ) :   1.1696 B(  9-C , 11-H ) :   0.9275
B( 10-C , 30-C ) :   1.1619 B( 12-C , 13-N ) :   1.0737 B( 12-C , 18-O ) :   2.0776
B( 13-N , 14-C ) :   1.0663 B( 13-N , 22-C ) :   0.9507 B( 14-C , 19-O ) :   2.0013
B( 15-C , 17-N ) :   1.0614 B( 15-C , 21-O ) :   2.0084 B( 16-C , 17-N ) :   1.0774
B( 16-C , 20-O ) :   2.0750 B( 17-N , 26-C ) :   0.9510 B( 22-C , 23-H ) :   0.9432
B( 22-C , 24-H ) :   0.9649 B( 22-C , 25-H ) :   0.9661 B( 26-C , 27-H ) :   0.9660
B( 26-C , 28-H ) :   0.9650 B( 26-C , 29-H ) :   0.9434 B( 30-C , 31-C ) :   1.4248
B( 30-C , 36-S ) :   1.0946 B( 31-C , 32-C ) :   1.3004 B( 31-C , 33-H ) :   0.9504
B( 32-C , 34-C ) :   1.3856 B( 32-C , 35-H ) :   0.9748 B( 34-C , 36-S ) :   1.1278
B( 34-C , 37-C ) :   1.2001 B( 37-C , 38-C ) :   1.3818 B( 37-C , 43-S ) :   1.1315
B( 38-C , 39-C ) :   1.3038 B( 38-C , 40-H ) :   0.9749 B( 39-C , 41-C ) :   1.4220
B( 39-C , 42-H ) :   0.9494 B( 41-C , 43-S ) :   1.0899 B( 41-C , 44-C ) :   1.1700
B( 44-C , 45-C ) :   1.1534 B( 44-C , 48-C ) :   1.3265 B( 45-C , 46-C ) :   1.5074
B( 45-C , 47-H ) :   0.9303 B( 46-C , 50-C ) :   1.1912 B( 46-C , 57-C ) :   0.9167
B( 48-C , 49-C ) :   1.2410 B( 48-C , 60-C ) :   0.9621 B( 49-C , 50-C ) :   1.2308
B( 49-C , 52-C ) :   1.2242 B( 50-C , 51-C ) :   1.2550 B( 51-C , 53-C ) :   1.3907
B( 51-C , 58-C ) :   0.9367 B( 52-C , 54-C ) :   1.4205 B( 52-C , 61-C ) :   0.9426
B( 53-C , 54-C ) :   1.2388 B( 53-C , 55-H ) :   0.9783 B( 54-C , 56-H ) :   0.9712
B( 57-C , 59-N ) :   1.0723 B( 57-C , 71-O ) :   2.0868 B( 58-C , 59-N ) :   1.0583
B( 58-C , 72-O ) :   2.1083 B( 59-N , 67-C ) :   0.9466 B( 60-C , 62-N ) :   1.0708
B( 60-C , 74-O ) :   1.9944 B( 61-C , 62-N ) :   1.0645 B( 61-C , 73-O ) :   2.0903
B( 62-N , 63-C ) :   0.9520 B( 63-C , 64-H ) :   0.9660 B( 63-C , 65-H ) :   0.9649
B( 63-C , 66-H ) :   0.9427 B( 67-C , 68-H ) :   0.9447 B( 67-C , 69-H ) :   0.9652
B( 67-C , 70-H ) :   0.9660 B( 75-C , 76-C ) :   1.4571 B( 75-C , 81-S ) :   1.1090
B( 76-C , 77-C ) :   1.2819 B( 76-C , 78-H ) :   0.9522 B( 77-C , 79-C ) :   1.4800
B( 77-C , 80-H ) :   0.9805 B( 79-C , 81-S ) :   1.1909 B( 79-C , 82-H ) :   0.9604

Dispersion correction           -0.232971325
FINAL SINGLE POINT ENERGY     -3704.951644591079

DIPOLE MOMENT
-------------
                                X             Y             Z
Electronic contribution:     -3.17931       1.75175       0.23576
Nuclear contribution   :      2.07965      -2.43226      -0.43510
                        -----------------------------------------
Total Dipole Moment    :     -1.09966      -0.68051      -0.19934
                        -----------------------------------------
Magnitude (a.u.)       :      1.30846
Magnitude (Debye)      :      3.32585

Rotational constants in cm-1:     0.003179     0.000377     0.000338
Rotational constants in MHz :    95.308814    11.298542    10.134654

                             ****ORCA TERMINATED NORMALLY****
TOTAL RUN TIME: 0 days 0 hours 36 minutes 34 seconds 791 msec
