                         Program Version 4.2.0 -  RELEASE  -
|  1> ! RI BP86 def2-SVP def2/J D3BJ TIGHTSCF  Opt Grid3 FinalGrid5
|  2> %maxcore 3000
|  3> %geom
|  4> optimizehydrogens true
|  5> end
|  6>
|  7>
|  8> *xyz 0 1
|  9> C	-2.478178	-1.740674	0.000194
| 10> C	-2.057388	-0.422334	0.002314
| 11> S	-1.104518	-2.747414	0.003144
| 12> C	0.040372	-1.448654	0.001874
| 13> C	-0.627868	-0.219044	0.002284
| 14> H	-2.759508	0.401726	0.002364
| 15> C	0.002722	1.165066	0.001444
| 16> C	-0.976988	2.347156	0.002254
| 17> H	0.636162	1.255276	-0.889106
| 18> H	0.637032	1.256276	0.891224
| 19> C	-0.252208	3.697106	-0.007436
| 20> H	-1.620168	2.294466	0.889644
| 21> H	-1.629448	2.288736	-0.877956
| 22> C	-1.254618	4.855186	0.004094
| 23> H	0.383132	3.768036	-0.898446
| 24> H	0.404922	3.770506	0.867424
| 25> C	-0.554928	6.213886	-0.025036
| 26> H	-1.882008	4.786486	0.901314
| 27> H	-1.922168	4.770586	-0.862246
| 28> C	-1.559998	7.355986	-0.005036
| 29> H	0.063372	6.295516	-0.926436
| 30> H	0.113852	6.308656	0.838174
| 31> H	-2.229328	7.305676	-0.869946
| 32> H	-1.041508	8.319516	-0.033066
| 33> H	-2.170528	7.325696	0.903234
| 34> H	-3.499162	-2.092783	-0.003060
| 35> H	1.094706	-1.682705	0.001344
| 36> **                         ****END OF INPUT****
 Total Charge           Charge          ....    0
 Multiplicity           Mult            ....    1
 Number of Electrons    NEL             ....   92
Dispersion correction           -0.041063641
FINAL SINGLE POINT ENERGY      -788.549729193621
Dispersion correction            ... done
Dispersion correction           -0.040985119
FINAL SINGLE POINT ENERGY      -788.552569207514
Dispersion correction            ... done
Dispersion correction           -0.040971533
FINAL SINGLE POINT ENERGY      -788.552849176198
Dispersion correction            ... done
FINAL SINGLE POINT ENERGY      -788.552981508805
Dispersion correction            ... done
Dispersion correction           -0.040969125
FINAL SINGLE POINT ENERGY      -788.552996239202
Dispersion correction            ... done
Dispersion correction           -0.040971444
FINAL SINGLE POINT ENERGY      -788.553001885838
Dispersion correction            ... done
                    ***********************HURRAY********************

CARTESIAN COORDINATES (ANGSTROEM)
---------------------------------
  C     -2.487541   -1.736288    0.000210
  C     -2.064432   -0.418690    0.002282
  S     -1.115654   -2.745442    0.002997
  C      0.031519   -1.448698    0.001593
  C     -0.634557   -0.217915    0.002083
  H     -2.776455    0.418176    0.002323
  C     -0.001534    1.165084    0.001170
  C     -0.979163    2.348895    0.002097
  H      0.668918    1.254151   -0.883124
  H      0.671765    1.254713    0.883195
  C     -0.252010    3.697568   -0.007677
  H     -1.638880    2.291327    0.895368
  H     -1.648442    2.284958   -0.883524
  C     -1.252380    4.857410    0.003973
  H      0.400708    3.769778   -0.906101
  H      0.423461    3.771734    0.873574
  C     -0.550305    6.214877   -0.025238
  H     -1.897287    4.786288    0.908461
  H     -1.937180    4.769555   -0.869222
  C     -1.553362    7.358743   -0.005118
  H      0.091659    6.280388   -0.931773
  H      0.140981    6.293182    0.843260
  H     -2.237866    7.307954   -0.878195
  H     -1.063632    8.354188   -0.027385
  H     -2.185809    7.322275    0.907048
  H     -3.503853   -2.144621    0.000388
  H      1.107085   -1.661660    0.001890

 Multiplicity           Mult            ....    1
 Number of Electrons    NEL             ....   92
 Basis Dimension        Dim             ....  238

ORBITAL ENERGIES
----------------

  NO   OCC          E(Eh)            E(eV)
   0   2.0000     -88.110499     -2397.6086
   1   2.0000      -9.932676      -270.2819
   2   2.0000      -9.932075      -270.2655
   3   2.0000      -9.923066      -270.0203
   4   2.0000      -9.920186      -269.9420
   5   2.0000      -9.913387      -269.7570
   6   2.0000      -9.912895      -269.7436
   7   2.0000      -9.910991      -269.6918
   8   2.0000      -9.909861      -269.6610
   9   2.0000      -9.908953      -269.6363
  10   2.0000      -9.905021      -269.5293
  11   2.0000      -7.707532      -209.7326
  12   2.0000      -5.734314      -156.0386
  13   2.0000      -5.729651      -155.9117
  14   2.0000      -5.727408      -155.8507
  15   2.0000      -0.799007       -21.7421
  16   2.0000      -0.733824       -19.9684
  17   2.0000      -0.705620       -19.2009
  18   2.0000      -0.666598       -18.1390
  19   2.0000      -0.645958       -17.5774
  20   2.0000      -0.621457       -16.9107
  21   2.0000      -0.569096       -15.4859
  22   2.0000      -0.526503       -14.3269
  23   2.0000      -0.515263       -14.0210
  24   2.0000      -0.499045       -13.5797
  25   2.0000      -0.475846       -12.9484
  26   2.0000      -0.444130       -12.0854
  27   2.0000      -0.433734       -11.8025
  28   2.0000      -0.404003       -10.9935
  29   2.0000      -0.388315       -10.5666
  30   2.0000      -0.371276       -10.1029
  31   2.0000      -0.364966        -9.9312
  32   2.0000      -0.363522        -9.8919
  33   2.0000      -0.357854        -9.7377
  34   2.0000      -0.337366        -9.1802
  35   2.0000      -0.333370        -9.0715
  36   2.0000      -0.326423        -8.8824
  37   2.0000      -0.312107        -8.4929
  38   2.0000      -0.307215        -8.3598
  39   2.0000      -0.296049        -8.0559
  40   2.0000      -0.291525        -7.9328
  41   2.0000      -0.289122        -7.8674
  42   2.0000      -0.282693        -7.6925
  43   2.0000      -0.272061        -7.4032
  44   2.0000      -0.215667        -5.8686
  45   2.0000      -0.205146        -5.5823
  46   0.0000      -0.043075        -1.1721
  47   0.0000       0.020014         0.5446
  48   0.0000       0.026284         0.7152
  49   0.0000       0.036379         0.9899
  50   0.0000       0.049862         1.3568

MULLIKEN ATOMIC CHARGES
-----------------------
   0 C :   -0.103008
   1 C :   -0.011958
   2 S :    0.086374
   3 C :   -0.151887
   4 C :   -0.033357
   5 H :    0.000715
   6 C :    0.084567
   7 C :   -0.076751
   8 H :    0.025242
   9 H :    0.025351
  10 C :   -0.009886
  11 H :    0.025116
  12 H :    0.025461
  13 C :   -0.046686
  14 H :    0.011580
  15 H :    0.011795
  16 C :   -0.045265
  17 H :    0.012232
  18 H :    0.012071
  19 C :   -0.036852
  20 H :    0.017668
  21 H :    0.017617
  22 H :    0.024851
  23 H :    0.026355
  24 H :    0.024812
  25 H :    0.047273
  26 H :    0.036572
Sum of atomic charges:    0.0000000

LOEWDIN ATOMIC CHARGES
----------------------
   0 C :   -0.217321
   1 C :   -0.083573
   2 S :    0.439053
   3 C :   -0.217369
   4 C :   -0.066366
   5 H :    0.029805
   6 C :   -0.039011
   7 C :   -0.045090
   8 H :    0.036898
   9 H :    0.036873
  10 C :   -0.043039
  11 H :    0.026253
  12 H :    0.026252
  13 C :   -0.045804
  14 H :    0.024192
  15 H :    0.024211
  16 C :   -0.051877
  17 H :    0.023763
  18 H :    0.023705
  19 C :   -0.075122
  20 H :    0.024872
  21 H :    0.024865
  22 H :    0.026596
  23 H :    0.027374
  24 H :    0.026591
  25 H :    0.033846
  26 H :    0.029423

  Mayer bond orders larger than 0.100000
B(  0-C ,  1-C ) :   1.4860 B(  0-C ,  2-S ) :   1.1946 B(  0-C ,  3-C ) :   0.1085
B(  0-C , 25-H ) :   0.9595 B(  1-C ,  4-C ) :   1.3326 B(  1-C ,  5-H ) :   0.9729
B(  2-S ,  3-C ) :   1.1686 B(  3-C ,  4-C ) :   1.5018 B(  3-C , 26-H ) :   0.9692
B(  4-C ,  6-C ) :   1.0258 B(  6-C ,  7-C ) :   1.1167 B(  6-C ,  8-H ) :   0.9119
B(  6-C ,  9-H ) :   0.9120 B(  7-C , 10-C ) :   1.0850 B(  7-C , 11-H ) :   0.9265
B(  7-C , 12-H ) :   0.9264 B( 10-C , 13-C ) :   1.0868 B( 10-C , 14-H ) :   0.9306
B( 10-C , 15-H ) :   0.9306 B( 13-C , 16-C ) :   1.0880 B( 13-C , 17-H ) :   0.9355
B( 13-C , 18-H ) :   0.9356 B( 16-C , 19-C ) :   1.1145 B( 16-C , 20-H ) :   0.9375
B( 16-C , 21-H ) :   0.9375 B( 19-C , 22-H ) :   0.9647 B( 19-C , 23-H ) :   0.9602
B( 19-C , 24-H ) :   0.9646

Dispersion correction           -0.040972250
FINAL SINGLE POINT ENERGY      -788.553003445612

DIPOLE MOMENT
-------------
                                X             Y             Z
Electronic contribution:     -0.53919     -32.01639       0.03646
Nuclear contribution   :      0.58139      32.39538      -0.03646
                        -----------------------------------------
Total Dipole Moment    :      0.04220       0.37899      -0.00000
                        -----------------------------------------
Magnitude (a.u.)       :      0.38133
Magnitude (Debye)      :      0.96927

Rotational constants in cm-1:     0.139705     0.008437     0.008029
Rotational constants in MHz :  4188.243401   252.928198   240.696215

                             ****ORCA TERMINATED NORMALLY****
TOTAL RUN TIME: 0 days 0 hours 4 minutes 4 seconds 298 msec
