                         Program Version 4.2.0 -  RELEASE  -
|  1> ! RI BP86 def2-SVP def2/J D3BJ TIGHTSCF  Opt Grid3 FinalGrid5
|  2> %maxcore 3000
|  3> %geom
|  4> optimizehydrogens true
|  5> end
|  6>
|  7>
|  8> *xyz 0 1
|  9> C	0.384445	-0.322500	0.029465
| 10> S	1.638253	-1.554229	0.075167
| 11> C	2.962833	-0.397752	0.021035
| 12> C	0.992271	0.936750	-0.027218
| 13> C	2.433651	0.915830	-0.030673
| 14> S	0.320825	2.556401	-0.095299
| 15> C	1.954133	3.235934	-0.125970
| 16> C	2.938660	2.260384	-0.086903
| 17> F	4.243524	2.553108	-0.100466
| 18> C	2.036455	4.703649	-0.190160
| 19> O	1.052889	5.429921	-0.224249
| 20> O	3.315500	5.151433	-0.207484
| 21> C	3.457046	6.578001	-0.273549
| 22> H	4.543778	6.773339	-0.280275
| 23> H	2.980497	7.062839	0.602279
| 24> H	2.984857	6.979146	-1.192975
| 25> H	-0.661232	-0.592114	0.045838
| 26> H	3.976963	-0.768940	0.033719
| 27> **                         ****END OF INPUT****
 Total Charge           Charge          ....    0
 Multiplicity           Mult            ....    1
 Number of Electrons    NEL             ....  110
Dispersion correction           -0.038592637
FINAL SINGLE POINT ENERGY     -1353.996818472672
Dispersion correction            ... done
Dispersion correction           -0.038579354
FINAL SINGLE POINT ENERGY     -1353.997172449111
Dispersion correction            ... done
Dispersion correction           -0.038580232
FINAL SINGLE POINT ENERGY     -1353.997206613429
Dispersion correction            ... done
Dispersion correction           -0.038584610
FINAL SINGLE POINT ENERGY     -1353.997243780675
Dispersion correction            ... done
                    ***********************HURRAY********************

CARTESIAN COORDINATES (ANGSTROEM)
---------------------------------
  C      0.381565   -0.322838    0.030014
  S      1.634545   -1.555413    0.075600
  C      2.959900   -0.399835    0.021256
  C      0.990235    0.935999   -0.026792
  C      2.431600    0.914103   -0.030431
  S      0.319877    2.556101   -0.094846
  C      1.953640    3.234528   -0.125751
  C      2.937512    2.258313   -0.086775
  F      4.242572    2.550154   -0.100516
  C      2.036947    4.702184   -0.190005
  O      1.053868    5.429121   -0.223994
  O      3.316292    5.149102   -0.207509
  C      3.458795    6.575572   -0.273643
  H      4.545657    6.770297   -0.280057
  H      2.982457    7.060958    0.602046
  H      2.986704    6.977243   -1.192963
  H     -0.678546   -0.596882    0.044691
  H      4.001728   -0.737509    0.031955

 Multiplicity           Mult            ....    1
 Number of Electrons    NEL             ....  110
 Basis Dimension        Dim             ....  215

ORBITAL ENERGIES
----------------

  NO   OCC          E(Eh)            E(eV)
   0   2.0000     -88.145046     -2398.5486
   1   2.0000     -88.125376     -2398.0134
   2   2.0000     -24.320035      -661.7818
   3   2.0000     -18.827346      -512.3181
   4   2.0000     -18.768535      -510.7178
   5   2.0000     -10.040948      -273.2281
   6   2.0000     -10.021924      -272.7104
   7   2.0000      -9.972803      -271.3738
   8   2.0000      -9.967639      -271.2332
   9   2.0000      -9.965993      -271.1885
  10   2.0000      -9.963166      -271.1115
  11   2.0000      -9.960649      -271.0430
  12   2.0000      -9.953745      -270.8552
  13   2.0000      -7.740113      -210.6192
  14   2.0000      -7.721304      -210.1074
  15   2.0000      -5.767156      -156.9323
  16   2.0000      -5.762483      -156.8051
  17   2.0000      -5.760030      -156.7384
  18   2.0000      -5.749086      -156.4406
  19   2.0000      -5.744907      -156.3269
  20   2.0000      -5.738808      -156.1609
  21   2.0000      -1.128188       -30.6996
  22   2.0000      -1.006873       -27.3984
  23   2.0000      -0.920639       -25.0518
  24   2.0000      -0.837571       -22.7915
  25   2.0000      -0.784385       -21.3442
  26   2.0000      -0.699312       -19.0292
  27   2.0000      -0.694410       -18.8958
  28   2.0000      -0.654126       -17.7997
  29   2.0000      -0.636259       -17.3135
  30   2.0000      -0.578723       -15.7478
  31   2.0000      -0.539287       -14.6747
  32   2.0000      -0.515677       -14.0323
  33   2.0000      -0.509385       -13.8611
  34   2.0000      -0.496697       -13.5158
  35   2.0000      -0.455368       -12.3912
  36   2.0000      -0.440346       -11.9824
  37   2.0000      -0.429276       -11.6812
  38   2.0000      -0.424694       -11.5565
  39   2.0000      -0.408374       -11.1124
  40   2.0000      -0.391560       -10.6549
  41   2.0000      -0.385646       -10.4940
  42   2.0000      -0.374942       -10.2027
  43   2.0000      -0.373073       -10.1518
  44   2.0000      -0.359703        -9.7880
  45   2.0000      -0.355746        -9.6803
  46   2.0000      -0.333602        -9.0778
  47   2.0000      -0.318704        -8.6724
  48   2.0000      -0.306844        -8.3496
  49   2.0000      -0.306216        -8.3326
  50   2.0000      -0.266340        -7.2475
  51   2.0000      -0.258803        -7.0424
  52   2.0000      -0.239314        -6.5121
  53   2.0000      -0.233884        -6.3643
  54   2.0000      -0.195714        -5.3257
  55   0.0000      -0.103229        -2.8090
  56   0.0000      -0.052454        -1.4274
  57   0.0000      -0.027037        -0.7357
  58   0.0000      -0.016773        -0.4564
  59   0.0000       0.009186         0.2500

MULLIKEN ATOMIC CHARGES
-----------------------
   0 C :   -0.156093
   1 S :    0.117800
   2 C :   -0.135410
   3 C :   -0.016799
   4 C :    0.026145
   5 S :    0.173520
   6 C :   -0.263700
   7 C :    0.273088
   8 F :   -0.128843
   9 C :    0.181560
  10 O :   -0.196789
  11 O :   -0.263205
  12 C :    0.117236
  13 H :    0.052406
  14 H :    0.051596
  15 H :    0.051594
  16 H :    0.056725
  17 H :    0.059168
Sum of atomic charges:   -0.0000000

LOEWDIN ATOMIC CHARGES
----------------------
   0 C :   -0.217994
   1 S :    0.458896
   2 C :   -0.191458
   3 C :   -0.188313
   4 C :   -0.103760
   5 S :    0.422995
   6 C :   -0.239525
   7 C :    0.057086
   8 F :   -0.018901
   9 C :    0.038174
  10 O :   -0.170981
  11 O :   -0.076118
  12 C :    0.062974
  13 H :    0.031070
  14 H :    0.028329
  15 H :    0.028330
  16 H :    0.039201
  17 H :    0.039993

  Mayer bond orders larger than 0.100000
B(  0-C ,  1-S ) :   1.1719 B(  0-C ,  2-C ) :   0.1320 B(  0-C ,  3-C ) :   1.4725
B(  0-C , 16-H ) :   0.9644 B(  1-S ,  2-C ) :   1.1927 B(  2-C ,  4-C ) :   1.3802
B(  2-C , 17-H ) :   0.9606 B(  3-C ,  4-C ) :   1.2520 B(  3-C ,  5-S ) :   1.0448
B(  4-C ,  7-C ) :   1.1338 B(  5-S ,  6-C ) :   1.0720 B(  6-C ,  7-C ) :   1.4589
B(  6-C ,  9-C ) :   0.9979 B(  7-C ,  8-F ) :   1.2259 B(  9-C , 10-O ) :   2.0651
B(  9-C , 11-O ) :   1.2392 B( 11-O , 12-C ) :   0.9322 B( 12-C , 13-H ) :   0.9737
B( 12-C , 14-H ) :   0.9670 B( 12-C , 15-H ) :   0.9670

Dispersion correction           -0.038585186
FINAL SINGLE POINT ENERGY     -1353.997244219679

DIPOLE MOMENT
-------------
                                X             Y             Z
Electronic contribution:     -1.11210      -8.26709       0.36387
Nuclear contribution   :      1.57673       7.66633      -0.33960
                        -----------------------------------------
Total Dipole Moment    :      0.46462      -0.60076       0.02427
                        -----------------------------------------
Magnitude (a.u.)       :      0.75985
Magnitude (Debye)      :      1.93139

Rotational constants in cm-1:     0.053421     0.012051     0.009852
Rotational constants in MHz :  1601.528124   361.284316   295.345816

                             ****ORCA TERMINATED NORMALLY****
TOTAL RUN TIME: 0 days 0 hours 2 minutes 54 seconds 564 msec
