                         Program Version 4.2.0 -  RELEASE  -
|  1> ! RI BP86 def2-SVP def2/J D3BJ TIGHTSCF  Opt Grid3 FinalGrid5
|  2> %maxcore 3000
|  3> %geom
|  4> optimizehydrogens true
|  5> end
|  6>
|  7>
|  8> *xyz 0 1
|  9> C	-4.586539	-0.774897	0.096402
| 10> C	-4.006980	0.484607	0.048471
| 11> S	-3.348556	-2.054004	0.128641
| 12> C	-2.579809	0.463909	0.042924
| 13> H	-4.582554	1.413677	0.016822
| 14> C	-2.037329	-0.868177	0.098614
| 15> C	-0.652029	-1.092580	0.076930
| 16> C	-1.738344	1.610600	-0.032407
| 17> C	-0.350735	1.386273	-0.058420
| 18> C	0.190971	0.052532	0.000209
| 19> O	-2.394230	2.804208	-0.051826
| 20> O	-0.003342	-2.294291	0.095402
| 21> C	-0.605962	-3.403287	0.751465
| 22> H	0.182689	-4.173648	0.844468
| 23> H	-1.446787	-3.833006	0.163996
| 24> H	-0.971330	-3.128750	1.764411
| 25> C	-1.744511	3.970880	-0.541476
| 26> H	-2.529787	4.744462	-0.631810
| 27> H	-1.288558	3.796597	-1.539393
| 28> H	-0.966715	4.341458	0.161111
| 29> C	1.617726	0.035340	-0.007773
| 30> S	0.962310	2.573873	-0.101228
| 31> C	2.191452	1.298329	-0.063607
| 32> H	2.196997	-0.896257	0.026781
| 33> H	-5.629384	-1.055436	0.109538
| 34> H	3.237129	1.567944	-0.079980
| 35> **                         ****END OF INPUT****
 Total Charge           Charge          ....    0
 Multiplicity           Mult            ....    1
 Number of Electrons    NEL             ....  130
Dispersion correction           -0.061110238
FINAL SINGLE POINT ENERGY     -1409.563019547461
Dispersion correction            ... done
Dispersion correction           -0.061094014
FINAL SINGLE POINT ENERGY     -1409.563388149119
Dispersion correction            ... done
Dispersion correction           -0.061094005
FINAL SINGLE POINT ENERGY     -1409.563390442126
Dispersion correction            ... done
Dispersion correction           -0.061094550
FINAL SINGLE POINT ENERGY     -1409.563392933095
Dispersion correction            ... done
                    ***********************HURRAY********************

CARTESIAN COORDINATES (ANGSTROEM)
---------------------------------
  C     -4.586346   -0.775935    0.097085
  C     -4.006981    0.483663    0.049270
  S     -3.348171   -2.054870    0.128747
  C     -2.579808    0.463171    0.043359
  H     -4.583266    1.416989    0.018535
  C     -2.037123   -0.868848    0.098636
  C     -0.651796   -1.093047    0.076556
  C     -1.738527    1.609999   -0.031946
  C     -0.350893    1.385877   -0.058355
  C      0.191020    0.052202   -0.000140
  O     -2.394590    2.803517   -0.050951
  O     -0.002931   -2.294668    0.094615
  C     -0.605226   -3.403887    0.750599
  H      0.186258   -4.170680    0.851956
  H     -1.441032   -3.839451    0.160449
  H     -0.978753   -3.128423    1.760550
  C     -1.745162    3.970384   -0.540523
  H     -2.531842    4.742404   -0.637350
  H     -1.282786    3.795582   -1.535692
  H     -0.970454    4.344191    0.163637
  C      1.617775    0.035217   -0.008485
  S      0.961971    2.573675   -0.101247
  C      2.191306    1.298301   -0.064201
  H      2.197623   -0.895710    0.024785
  H     -5.647274   -1.052013    0.110234
  H      3.252802    1.572716   -0.081859

 Multiplicity           Mult            ....    1
 Number of Electrons    NEL             ....  130
 Basis Dimension        Dim             ....  282

ORBITAL ENERGIES
----------------

  NO   OCC          E(Eh)            E(eV)
   0   2.0000     -88.114852     -2397.7270
   1   2.0000     -88.113971     -2397.7030
   2   2.0000     -18.815446      -511.9943
   3   2.0000     -18.812513      -511.9145
   4   2.0000      -9.978991      -271.5422
   5   2.0000      -9.976551      -271.4757
   6   2.0000      -9.974250      -271.4131
   7   2.0000      -9.972132      -271.3555
   8   2.0000      -9.946936      -270.6699
   9   2.0000      -9.946015      -270.6448
  10   2.0000      -9.943419      -270.5742
  11   2.0000      -9.943356      -270.5725
  12   2.0000      -9.925261      -270.0801
  13   2.0000      -9.924711      -270.0651
  14   2.0000      -9.921028      -269.9649
  15   2.0000      -9.920919      -269.9619
  16   2.0000      -7.709943      -209.7982
  17   2.0000      -7.709002      -209.7726
  18   2.0000      -5.737615      -156.1285
  19   2.0000      -5.736672      -156.1028
  20   2.0000      -5.732996      -156.0028
  21   2.0000      -5.732093      -155.9782
  22   2.0000      -5.728371      -155.8769
  23   2.0000      -5.727413      -155.8508
  24   2.0000      -0.974657       -26.5218
  25   2.0000      -0.971245       -26.4289
  26   2.0000      -0.809142       -22.0179
  27   2.0000      -0.789448       -21.4820
  28   2.0000      -0.726758       -19.7761
  29   2.0000      -0.706795       -19.2329
  30   2.0000      -0.669922       -18.2295
  31   2.0000      -0.648627       -17.6500
  32   2.0000      -0.644305       -17.5324
  33   2.0000      -0.641894       -17.4668
  34   2.0000      -0.589709       -16.0468
  35   2.0000      -0.553151       -15.0520
  36   2.0000      -0.525120       -14.2893
  37   2.0000      -0.514000       -13.9866
  38   2.0000      -0.493972       -13.4417
  39   2.0000      -0.485863       -13.2210
  40   2.0000      -0.469208       -12.7678
  41   2.0000      -0.452494       -12.3130
  42   2.0000      -0.425295       -11.5729
  43   2.0000      -0.419772       -11.4226
  44   2.0000      -0.409622       -11.1464
  45   2.0000      -0.404404       -11.0044
  46   2.0000      -0.400563       -10.8999
  47   2.0000      -0.392488       -10.6801
  48   2.0000      -0.369376       -10.0512
  49   2.0000      -0.362631        -9.8677
  50   2.0000      -0.359654        -9.7867
  51   2.0000      -0.341289        -9.2870
  52   2.0000      -0.339106        -9.2276
  53   2.0000      -0.332897        -9.0586
  54   2.0000      -0.320051        -8.7090
  55   2.0000      -0.314703        -8.5635
  56   2.0000      -0.303759        -8.2657
  57   2.0000      -0.300905        -8.1880
  58   2.0000      -0.286998        -7.8096
  59   2.0000      -0.278159        -7.5691
  60   2.0000      -0.238979        -6.5030
  61   2.0000      -0.233010        -6.3405
  62   2.0000      -0.225702        -6.1417
  63   2.0000      -0.206502        -5.6192
  64   2.0000      -0.158208        -4.3050
  65   0.0000      -0.068630        -1.8675
  66   0.0000      -0.026153        -0.7116
  67   0.0000      -0.020559        -0.5594
  68   0.0000      -0.007506        -0.2042
  69   0.0000       0.000765         0.0208

MULLIKEN ATOMIC CHARGES
-----------------------
   0 C :   -0.088879
   1 C :    0.000524
   2 S :    0.066283
   3 C :    0.032992
   4 H :    0.008222
   5 C :   -0.129091
   6 C :    0.084019
   7 C :    0.092180
   8 C :   -0.138301
   9 C :    0.039649
  10 O :   -0.279300
  11 O :   -0.282896
  12 C :    0.101425
  13 H :    0.052378
  14 H :    0.052137
  15 H :    0.047198
  16 C :    0.100724
  17 H :    0.054219
  18 H :    0.049633
  19 H :    0.053748
  20 C :   -0.002310
  21 S :    0.065459
  22 C :   -0.087991
  23 H :    0.007846
  24 H :    0.050164
  25 H :    0.049968
Sum of atomic charges:   -0.0000000

LOEWDIN ATOMIC CHARGES
----------------------
   0 C :   -0.177368
   1 C :   -0.057004
   2 S :    0.377888
   3 C :   -0.068578
   4 H :    0.039457
   5 C :   -0.190884
   6 C :    0.009807
   7 C :    0.013542
   8 C :   -0.192554
   9 C :   -0.066164
  10 O :   -0.084096
  11 O :   -0.088950
  12 C :    0.051803
  13 H :    0.032833
  14 H :    0.010849
  15 H :    0.021980
  16 C :    0.050846
  17 H :    0.033997
  18 H :    0.021368
  19 H :    0.013272
  20 C :   -0.057182
  21 S :    0.380377
  22 C :   -0.179598
  23 H :    0.039457
  24 H :    0.032462
  25 H :    0.032442

  Mayer bond orders larger than 0.100000
B(  0-C ,  1-C ) :   1.5608 B(  0-C ,  2-S ) :   1.0887 B(  0-C , 24-H ) :   0.9586
B(  1-C ,  3-C ) :   1.2228 B(  1-C ,  4-H ) :   0.9797 B(  2-S ,  5-C ) :   1.0388
B(  3-C ,  5-C ) :   1.2823 B(  3-C ,  7-C ) :   1.2868 B(  5-C ,  6-C ) :   1.3501
B(  6-C ,  9-C ) :   1.2897 B(  6-C , 11-O ) :   1.2010 B(  7-C ,  8-C ) :   1.3505
B(  7-C , 10-O ) :   1.2066 B(  8-C ,  9-C ) :   1.2783 B(  8-C , 21-S ) :   1.0343
B(  9-C , 20-C ) :   1.2222 B( 10-O , 16-C ) :   0.9588 B( 11-O , 12-C ) :   0.9612
B( 12-C , 13-H ) :   0.9708 B( 12-C , 14-H ) :   0.9504 B( 12-C , 15-H ) :   0.9605
B( 16-C , 17-H ) :   0.9699 B( 16-C , 18-H ) :   0.9598 B( 16-C , 19-H ) :   0.9516
B( 20-C , 22-C ) :   1.5586 B( 20-C , 23-H ) :   0.9805 B( 21-S , 22-C ) :   1.0929
B( 22-C , 25-H ) :   0.9582

Dispersion correction           -0.061094710
FINAL SINGLE POINT ENERGY     -1409.563392975436

DIPOLE MOMENT
-------------
                                X             Y             Z
Electronic contribution:     -0.10868      -0.07669      -0.44104
Nuclear contribution   :      0.11879       0.15846       0.50812
                        -----------------------------------------
Total Dipole Moment    :      0.01011       0.08176       0.06708
                        -----------------------------------------
Magnitude (a.u.)       :      0.10624
Magnitude (Debye)      :      0.27005

Rotational constants in cm-1:     0.021331     0.013220     0.008226
Rotational constants in MHz :   639.496861   396.339741   246.619315

                             ****ORCA TERMINATED NORMALLY****
TOTAL RUN TIME: 0 days 0 hours 4 minutes 49 seconds 233 msec
