                         Program Version 4.2.0 -  RELEASE  -
|  1> ! RI BP86 def2-SVP def2/J D3BJ TIGHTSCF  Opt Grid3 FinalGrid5
|  2> %maxcore 3000
|  3> %geom
|  4> Constraints
|  5> {D 1 0 27 32 0.0 C}
|  6> {D 5 0 27 28 0.0 C}
|  7> {D 2 4 10 15 0.0 C}
|  8> {D 5 4 10 11 0.0 C}
|  9> {D 12 14 20 25 0.0 C}
| 10> {D 15 14 20 21 0.0 C}
| 11> end
| 12> end
| 13>
| 14> *xyz 0 1
| 15> C	-4.023439	-0.467788	0.000042
| 16> C	-3.012199	-1.414258	-0.000018
| 17> C	-1.672829	-0.879618	0.000002
| 18> H	-3.200989	-2.481668	-0.000098
| 19> C	-1.686449	0.512502	0.000072
| 20> S	-3.314109	1.079612	0.000232
| 21> C	-0.483339	-1.788098	-0.000048
| 22> H	-0.790919	-2.839838	-0.000068
| 23> H	0.125611	-1.633238	0.895672
| 24> H	0.125571	-1.633188	-0.895788
| 25> C	-0.595439	1.485382	0.000052
| 26> C	-0.699979	2.864542	0.000012
| 27> C	0.557471	3.569082	0.000002
| 28> H	-1.650559	3.385492	0.000002
| 29> C	1.633471	2.684192	0.000012
| 30> S	1.055051	1.058082	0.000042
| 31> C	0.596081	5.065472	-0.000028
| 32> H	-0.416099	5.485372	-0.000028
| 33> H	1.097881	5.442672	-0.896088
| 34> H	1.097871	5.442702	0.896032
| 35> C	3.075931	2.925602	-0.000008
| 36> C	4.091471	1.975852	-0.000008
| 37> C	5.416781	2.524692	-0.000018
| 38> H	3.906331	0.908132	-0.000008
| 39> C	5.366821	3.901082	-0.000018
| 40> S	3.772791	4.496622	-0.000008
| 41> H	6.198931	4.592172	-0.000018
| 42> C	-5.468029	-0.712458	0.000012
| 43> C	-6.572499	0.149352	-0.000048
| 44> C	-7.816949	-0.584858	-0.000038
| 45> C	-7.650549	-1.943748	-0.000008
| 46> H	-8.794559	-0.116108	-0.000058
| 47> S	-6.011999	-2.367618	0.000032
| 48> H	-8.418399	-2.704988	0.000002
| 49> C	6.672971	1.722552	-0.000018
| 50> H	6.460131	0.648772	-0.000018
| 51> H	7.270681	1.950052	0.888602
| 52> H	7.270671	1.950052	-0.888638
| 53> C	-6.631429	1.646242	-0.000098
| 54> H	-5.671919	2.151642	-0.000678
| 55> H	-7.175989	1.992732	0.885722
| 56> H	-7.176889	1.992632	-0.885398
| 57> **                         ****END OF INPUT****
 Total Charge           Charge          ....    0
 Multiplicity           Mult            ....    1
 Number of Electrons    NEL             ....  202
Dispersion correction           -0.105131296
FINAL SINGLE POINT ENERGY     -2364.952130297234
Dispersion correction            ... done
Dispersion correction           -0.105822126
FINAL SINGLE POINT ENERGY     -2364.963402520863
Dispersion correction            ... done
Dispersion correction           -0.105948870
FINAL SINGLE POINT ENERGY     -2364.965647822685
Dispersion correction            ... done
FINAL SINGLE POINT ENERGY     -2364.966084151627
Dispersion correction            ... done
Dispersion correction           -0.105893980
FINAL SINGLE POINT ENERGY     -2364.966144217353
Dispersion correction            ... done
Dispersion correction           -0.105887470
FINAL SINGLE POINT ENERGY     -2364.966151554562
Dispersion correction            ... done
                    ***********************HURRAY********************

CARTESIAN COORDINATES (ANGSTROEM)
---------------------------------
  C     -4.061325   -0.457099    0.000241
  C     -3.028993   -1.398625    0.000489
  C     -1.714045   -0.858946    0.000656
  H     -3.222239   -2.481206    0.000329
  C     -1.720847    0.547271    0.000594
  S     -3.372231    1.159294    0.000862
  C     -0.474636   -1.710233    0.000689
  H     -0.737923   -2.785406    0.000655
  H      0.159172   -1.515638    0.891899
  H      0.159245   -1.515597   -0.890461
  C     -0.637298    1.496710    0.000406
  C     -0.717876    2.892452    0.000407
  C      0.533003    3.566730    0.000225
  H     -1.679728    3.425408    0.000543
  C      1.618092    2.671557    0.000118
  S      1.053307    1.006230    0.000201
  C      0.661176    5.064723    0.000183
  H     -0.336490    5.543865    0.000303
  H      1.214467    5.430298   -0.890988
  H      1.214697    5.430329    0.891197
  C      3.042756    2.911318   -0.000038
  C      4.071151    1.963997   -0.000137
  C      5.387251    2.517185   -0.000360
  H      3.874115    0.882009   -0.000086
  C      5.353442    3.906456   -0.000428
  S      3.737568    4.530949   -0.000132
  H      6.201353    4.602807   -0.000610
  C     -5.486076   -0.727241   -0.000238
  C     -6.611102    0.112638   -0.000340
  C     -7.836908   -0.633328   -0.000717
  C     -7.660668   -2.000765   -0.000911
  H     -8.826804   -0.154747   -0.000887
  S     -5.981817   -2.423739   -0.000545
  H     -8.424291   -2.787924   -0.001238
  C      6.652570    1.696626   -0.000533
  H      6.425164    0.613166   -0.000453
  H      7.276372    1.909063    0.892269
  H      7.276081    1.908992   -0.893555
  C     -6.617312    1.617882   -0.000123
  H     -5.606447    2.061260   -0.001222
  H     -7.148484    2.008460    0.893386
  H     -7.150477    2.008632   -0.892357

 Multiplicity           Mult            ....    1
 Number of Electrons    NEL             ....  202
 Basis Dimension        Dim             ....  442

ORBITAL ENERGIES
----------------

  NO   OCC          E(Eh)            E(eV)
   0   2.0000     -88.118310     -2397.8211
   1   2.0000     -88.117747     -2397.8058
   2   2.0000     -88.117397     -2397.7963
   3   2.0000     -88.116201     -2397.7637
   4   2.0000      -9.955045      -270.8906
   5   2.0000      -9.953630      -270.8521
   6   2.0000      -9.952635      -270.8250
   7   2.0000      -9.951630      -270.7976
   8   2.0000      -9.950103      -270.7561
   9   2.0000      -9.948594      -270.7150
  10   2.0000      -9.941421      -270.5198
  11   2.0000      -9.932731      -270.2833
  12   2.0000      -9.931107      -270.2392
  13   2.0000      -9.931080      -270.2384
  14   2.0000      -9.930290      -270.2169
  15   2.0000      -9.927066      -270.1292
  16   2.0000      -9.922353      -270.0009
  17   2.0000      -9.922000      -269.9913
  18   2.0000      -9.921429      -269.9758
  19   2.0000      -9.920999      -269.9641
  20   2.0000      -9.920856      -269.9602
  21   2.0000      -9.920794      -269.9585
  22   2.0000      -9.919620      -269.9266
  23   2.0000      -9.917150      -269.8594
  24   2.0000      -7.713775      -209.9025
  25   2.0000      -7.713342      -209.8907
  26   2.0000      -7.712806      -209.8761
  27   2.0000      -7.712527      -209.8685
  28   2.0000      -5.741079      -156.2227
  29   2.0000      -5.740509      -156.2072
  30   2.0000      -5.740174      -156.1981
  31   2.0000      -5.739728      -156.1859
  32   2.0000      -5.736800      -156.1063
  33   2.0000      -5.735872      -156.0810
  34   2.0000      -5.735677      -156.0757
  35   2.0000      -5.735146      -156.0612
  36   2.0000      -5.732739      -155.9958
  37   2.0000      -5.732468      -155.9884
  38   2.0000      -5.731661      -155.9664
  39   2.0000      -5.731618      -155.9652
  40   2.0000      -0.820150       -22.3174
  41   2.0000      -0.811245       -22.0751
  42   2.0000      -0.799371       -21.7520
  43   2.0000      -0.788465       -21.4552
  44   2.0000      -0.716395       -19.4941
  45   2.0000      -0.703224       -19.1357
  46   2.0000      -0.696077       -18.9412
  47   2.0000      -0.693776       -18.8786
  48   2.0000      -0.689909       -18.7734
  49   2.0000      -0.673753       -18.3337
  50   2.0000      -0.645532       -17.5658
  51   2.0000      -0.631920       -17.1954
  52   2.0000      -0.614997       -16.7349
  53   2.0000      -0.613677       -16.6990
  54   2.0000      -0.608889       -16.5687
  55   2.0000      -0.588308       -16.0087
  56   2.0000      -0.550785       -14.9876
  57   2.0000      -0.532530       -14.4909
  58   2.0000      -0.515040       -14.0150
  59   2.0000      -0.501255       -13.6398
  60   2.0000      -0.485581       -13.2133
  61   2.0000      -0.471247       -12.8233
  62   2.0000      -0.462997       -12.5988
  63   2.0000      -0.460178       -12.5221
  64   2.0000      -0.447170       -12.1681
  65   2.0000      -0.441399       -12.0111
  66   2.0000      -0.415005       -11.2929
  67   2.0000      -0.397185       -10.8080
  68   2.0000      -0.390175       -10.6172
  69   2.0000      -0.389653       -10.6030
  70   2.0000      -0.388962       -10.5842
  71   2.0000      -0.384377       -10.4594
  72   2.0000      -0.382330       -10.4037
  73   2.0000      -0.380132       -10.3439
  74   2.0000      -0.376315       -10.2400
  75   2.0000      -0.369444       -10.0531
  76   2.0000      -0.359628        -9.7860
  77   2.0000      -0.353485        -9.6188
  78   2.0000      -0.349775        -9.5179
  79   2.0000      -0.347299        -9.4505
  80   2.0000      -0.346113        -9.4182
  81   2.0000      -0.341629        -9.2962
  82   2.0000      -0.339751        -9.2451
  83   2.0000      -0.338545        -9.2123
  84   2.0000      -0.330176        -8.9845
  85   2.0000      -0.329964        -8.9788
  86   2.0000      -0.327745        -8.9184
  87   2.0000      -0.322943        -8.7877
  88   2.0000      -0.315550        -8.5866
  89   2.0000      -0.310280        -8.4432
  90   2.0000      -0.304195        -8.2776
  91   2.0000      -0.294543        -8.0149
  92   2.0000      -0.288911        -7.8617
  93   2.0000      -0.267542        -7.2802
  94   2.0000      -0.234715        -6.3869
  95   2.0000      -0.226162        -6.1542
  96   2.0000      -0.223316        -6.0767
  97   2.0000      -0.221526        -6.0280
  98   2.0000      -0.220014        -5.9869
  99   2.0000      -0.195779        -5.3274
 100   2.0000      -0.161021        -4.3816
 101   0.0000      -0.093159        -2.5350
 102   0.0000      -0.062798        -1.7088
 103   0.0000      -0.033682        -0.9165
 104   0.0000      -0.013570        -0.3692
 105   0.0000      -0.010696        -0.2911

MULLIKEN ATOMIC CHARGES
-----------------------
   0 C :   -0.032879
   1 C :   -0.071389
   2 C :   -0.069875
   3 H :   -0.000354
   4 C :   -0.056730
   5 S :    0.077058
   6 C :    0.036183
   7 H :    0.028699
   8 H :    0.052243
   9 H :    0.052253
  10 C :   -0.059412
  11 C :   -0.056624
  12 C :   -0.075700
  13 H :   -0.004427
  14 C :   -0.049428
  15 S :    0.073047
  16 C :    0.034662
  17 H :    0.027200
  18 H :    0.052327
  19 H :    0.052326
  20 C :   -0.109628
  21 C :   -0.023811
  22 C :   -0.039896
  23 H :   -0.000857
  24 C :   -0.134066
  25 S :    0.085176
  26 H :    0.034195
  27 C :   -0.103290
  28 C :   -0.072349
  29 C :   -0.009023
  30 C :   -0.082249
  31 H :   -0.000260
  32 S :    0.087968
  33 H :    0.049467
  34 C :    0.031060
  35 H :    0.027047
  36 H :    0.046875
  37 H :    0.046875
  38 C :    0.032508
  39 H :    0.031989
  40 H :    0.046580
  41 H :    0.046509
Sum of atomic charges:   -0.0000000

LOEWDIN ATOMIC CHARGES
----------------------
   0 C :   -0.182757
   1 C :   -0.075424
   2 C :   -0.060616
   3 H :    0.028284
   4 C :   -0.188800
   5 S :    0.432999
   6 C :   -0.073116
   7 H :    0.039744
   8 H :    0.038152
   9 H :    0.038146
  10 C :   -0.182718
  11 C :   -0.077258
  12 C :   -0.060041
  13 H :    0.028312
  14 C :   -0.191153
  15 S :    0.434858
  16 C :   -0.072662
  17 H :    0.039123
  18 H :    0.037792
  19 H :    0.037790
  20 C :   -0.187738
  21 C :   -0.082142
  22 C :   -0.065164
  23 H :    0.027524
  24 C :   -0.215102
  25 S :    0.436384
  26 H :    0.028421
  27 C :   -0.188249
  28 C :   -0.066502
  29 C :   -0.071397
  30 C :   -0.193291
  31 H :    0.034399
  32 S :    0.420666
  33 H :    0.032744
  34 C :   -0.062283
  35 H :    0.036385
  36 H :    0.042164
  37 H :    0.042165
  38 C :   -0.066429
  39 H :    0.017444
  40 H :    0.044680
  41 H :    0.044665

  Mayer bond orders larger than 0.100000
B(  0-C ,  1-C ) :   1.4251 B(  0-C ,  5-S ) :   1.1067 B(  0-C , 27-C ) :   1.1864
B(  1-C ,  2-C ) :   1.2896 B(  1-C ,  3-H ) :   0.9663 B(  2-C ,  4-C ) :   1.4302
B(  2-C ,  6-C ) :   1.1276 B(  4-C ,  5-S ) :   1.0870 B(  4-C , 10-C ) :   1.1958
B(  6-C ,  7-H ) :   0.9369 B(  6-C ,  8-H ) :   0.9305 B(  6-C ,  9-H ) :   0.9305
B( 10-C , 11-C ) :   1.4116 B( 10-C , 15-S ) :   1.0976 B( 11-C , 12-C ) :   1.2919
B( 11-C , 13-H ) :   0.9689 B( 12-C , 14-C ) :   1.4363 B( 12-C , 16-C ) :   1.1249
B( 14-C , 15-S ) :   1.0880 B( 14-C , 20-C ) :   1.1844 B( 16-C , 17-H ) :   0.9379
B( 16-C , 18-H ) :   0.9316 B( 16-C , 19-H ) :   0.9316 B( 20-C , 21-C ) :   1.4314
B( 20-C , 25-S ) :   1.1274 B( 21-C , 22-C ) :   1.2961 B( 21-C , 23-H ) :   0.9678
B( 22-C , 24-C ) :   1.5118 B( 22-C , 34-C ) :   1.0887 B( 24-C , 25-S ) :   1.1321
B( 24-C , 26-H ) :   0.9627 B( 27-C , 28-C ) :   1.4610 B( 27-C , 32-S ) :   1.1150
B( 28-C , 29-C ) :   1.2660 B( 28-C , 38-C ) :   1.1155 B( 29-C , 30-C ) :   1.5258
B( 29-C , 31-H ) :   0.9821 B( 30-C , 32-S ) :   1.1538 B( 30-C , 33-H ) :   0.9605
B( 34-C , 35-H ) :   0.9527 B( 34-C , 36-H ) :   0.9491 B( 34-C , 37-H ) :   0.9491
B( 38-C , 39-H ) :   0.9327 B( 38-C , 40-H ) :   0.9378 B( 38-C , 41-H ) :   0.9378

Dispersion correction           -0.105885379
FINAL SINGLE POINT ENERGY     -2364.966153470393

DIPOLE MOMENT
-------------
                                X             Y             Z
Electronic contribution:     -8.15000      -3.79340       0.00169
Nuclear contribution   :      8.16043       3.84504      -0.00178
                        -----------------------------------------
Total Dipole Moment    :      0.01043       0.05164      -0.00010
                        -----------------------------------------
Magnitude (a.u.)       :      0.05268
Magnitude (Debye)      :      0.13391

Rotational constants in cm-1:     0.019692     0.002117     0.001914
Rotational constants in MHz :   590.347840    63.457927    57.382236

                             ****ORCA TERMINATED NORMALLY****
TOTAL RUN TIME: 0 days 0 hours 21 minutes 34 seconds 932 msec
