                         Program Version 4.2.0 -  RELEASE  -
|  1> ! RI BP86 def2-SVP def2/J D3BJ TIGHTSCF  Opt Grid3 FinalGrid5
|  2> %maxcore 3000
|  3> %geom
|  4> optimizehydrogens true
|  5> end
|  6>
|  7>
|  8> *xyz 0 1
|  9> C	-0.768665	1.236242	-0.001533
| 10> C	-0.172695	-0.014218	-0.010093
| 11> C	1.276945	-0.011758	-0.005283
| 12> H	-0.753445	-0.928338	-0.018433
| 13> C	1.766375	1.299552	0.002277
| 14> S	0.454755	2.418752	0.009737
| 15> C	2.112705	-1.279328	-0.008453
| 16> C	1.350365	-2.612708	-0.011573
| 17> H	2.754105	-1.265608	0.881167
| 18> H	2.755375	-1.261778	-0.897163
| 19> C	2.324735	-3.797688	0.007857
| 20> H	0.714775	-2.679168	-0.903063
| 21> H	0.693005	-2.672008	0.864497
| 22> C	1.600665	-5.146978	-0.012593
| 23> H	2.952825	-3.736538	0.905117
| 24> H	2.994605	-3.733628	-0.858443
| 25> C	2.599515	-6.306318	0.033937
| 26> H	0.989435	-5.223618	-0.919923
| 27> H	0.919505	-5.214798	0.844197
| 28> C	1.905555	-7.658938	-0.002803
| 29> H	3.202325	-6.239538	0.947287
| 30> H	3.290145	-6.236728	-0.814643
| 31> H	1.227625	-7.777498	0.848277
| 32> H	2.646085	-8.464448	0.039707
| 33> H	1.327495	-7.779668	-0.924383
| 34> H	-1.822998	1.470293	-0.001003
| 35> H	2.771721	1.694110	0.004175
| 36> **                         ****END OF INPUT****
 Total Charge           Charge          ....    0
 Multiplicity           Mult            ....    1
 Number of Electrons    NEL             ....   92
Dispersion correction           -0.040983015
FINAL SINGLE POINT ENERGY      -788.549825947320
Dispersion correction            ... done
Dispersion correction           -0.040906662
FINAL SINGLE POINT ENERGY      -788.552635163867
Dispersion correction            ... done
Dispersion correction           -0.040895268
FINAL SINGLE POINT ENERGY      -788.552896481939
Dispersion correction            ... done
FINAL SINGLE POINT ENERGY      -788.553014945762
Dispersion correction            ... done
Dispersion correction           -0.040895720
FINAL SINGLE POINT ENERGY      -788.553027312352
Dispersion correction            ... done
Dispersion correction           -0.040898167
FINAL SINGLE POINT ENERGY      -788.553032000377
Dispersion correction            ... done
                    ***********************HURRAY********************

CARTESIAN COORDINATES (ANGSTROEM)
---------------------------------
  C     -0.776951    1.232131   -0.002339
  C     -0.178857   -0.017316   -0.010689
  C      1.270776   -0.012394   -0.005620
  H     -0.764312   -0.947207   -0.018948
  C      1.757977    1.299745    0.001920
  S      0.444457    2.416718    0.009054
  C      2.108687   -1.278544   -0.008536
  C      1.348613   -2.613216   -0.011683
  H      2.786072   -1.259625    0.874953
  H      2.788566   -1.256113   -0.889989
  C      2.324990   -3.796539    0.008019
  H      0.696829   -2.679125   -0.910206
  H      0.674487   -2.670506    0.870703
  C      1.603215   -5.147058   -0.012450
  H      2.969953   -3.731385    0.912733
  H      3.012716   -3.727702   -0.864343
  C      2.604024   -6.304696    0.034354
  H      0.974075   -5.226282   -0.927232
  H      0.904237   -5.216298    0.851035
  C      1.912368   -7.658496   -0.002399
  H      3.225473   -6.215230    0.953073
  H      3.311558   -6.212069   -0.819577
  H      1.218595   -7.779951    0.856327
  H      2.631472   -8.502753    0.033332
  H      1.309261   -7.777716   -0.927287
  H     -1.839060    1.499734   -0.003238
  H      2.793617    1.659544    0.007879

 Multiplicity           Mult            ....    1
 Number of Electrons    NEL             ....   92
 Basis Dimension        Dim             ....  238

ORBITAL ENERGIES
----------------

  NO   OCC          E(Eh)            E(eV)
   0   2.0000     -88.110296     -2397.6031
   1   2.0000      -9.932954      -270.2894
   2   2.0000      -9.931428      -270.2479
   3   2.0000      -9.923197      -270.0239
   4   2.0000      -9.919866      -269.9333
   5   2.0000      -9.913944      -269.7721
   6   2.0000      -9.913672      -269.7647
   7   2.0000      -9.910980      -269.6915
   8   2.0000      -9.909909      -269.6623
   9   2.0000      -9.909108      -269.6405
  10   2.0000      -9.904923      -269.5267
  11   2.0000      -7.707464      -209.7307
  12   2.0000      -5.734244      -156.0367
  13   2.0000      -5.729532      -155.9085
  14   2.0000      -5.727352      -155.8492
  15   2.0000      -0.799507       -21.7557
  16   2.0000      -0.733434       -19.9577
  17   2.0000      -0.705402       -19.1950
  18   2.0000      -0.666153       -18.1269
  19   2.0000      -0.646610       -17.5952
  20   2.0000      -0.621572       -16.9138
  21   2.0000      -0.568786       -15.4775
  22   2.0000      -0.526225       -14.3193
  23   2.0000      -0.515194       -14.0191
  24   2.0000      -0.498716       -13.5708
  25   2.0000      -0.476569       -12.9681
  26   2.0000      -0.443747       -12.0750
  27   2.0000      -0.433443       -11.7946
  28   2.0000      -0.403919       -10.9912
  29   2.0000      -0.387422       -10.5423
  30   2.0000      -0.371928       -10.1207
  31   2.0000      -0.365716        -9.9516
  32   2.0000      -0.363081        -9.8799
  33   2.0000      -0.358123        -9.7450
  34   2.0000      -0.337785        -9.1916
  35   2.0000      -0.333942        -9.0870
  36   2.0000      -0.325585        -8.8596
  37   2.0000      -0.312031        -8.4908
  38   2.0000      -0.306634        -8.3439
  39   2.0000      -0.295627        -8.0444
  40   2.0000      -0.292147        -7.9497
  41   2.0000      -0.289065        -7.8658
  42   2.0000      -0.282587        -7.6896
  43   2.0000      -0.272087        -7.4039
  44   2.0000      -0.215434        -5.8623
  45   2.0000      -0.205031        -5.5792
  46   0.0000      -0.042545        -1.1577
  47   0.0000       0.019129         0.5205
  48   0.0000       0.028004         0.7620
  49   0.0000       0.036350         0.9891
  50   0.0000       0.049587         1.3493

MULLIKEN ATOMIC CHARGES
-----------------------
   0 C :   -0.104457
   1 C :   -0.009423
   2 C :   -0.033172
   3 H :    0.001623
   4 C :   -0.148396
   5 S :    0.087844
   6 C :    0.068169
   7 C :   -0.057665
   8 H :    0.025595
   9 H :    0.026134
  10 C :   -0.027606
  11 H :    0.024208
  12 H :    0.024683
  13 C :   -0.033693
  14 H :    0.011539
  15 H :    0.011638
  16 C :   -0.052902
  17 H :    0.012423
  18 H :    0.012370
  19 C :   -0.033884
  20 H :    0.017537
  21 H :    0.017492
  22 H :    0.024281
  23 H :    0.026910
  24 H :    0.024350
  25 H :    0.047905
  26 H :    0.036496
Sum of atomic charges:    0.0000000

LOEWDIN ATOMIC CHARGES
----------------------
   0 C :   -0.218222
   1 C :   -0.083058
   2 C :   -0.066500
   3 H :    0.029885
   4 C :   -0.219751
   5 S :    0.442335
   6 C :   -0.040119
   7 C :   -0.044428
   8 H :    0.036997
   9 H :    0.037072
  10 C :   -0.043624
  11 H :    0.026108
  12 H :    0.026136
  13 C :   -0.045533
  14 H :    0.024196
  15 H :    0.024166
  16 C :   -0.051862
  17 H :    0.023687
  18 H :    0.023676
  19 C :   -0.075167
  20 H :    0.024824
  21 H :    0.024811
  22 H :    0.026498
  23 H :    0.027684
  24 H :    0.026489
  25 H :    0.033948
  26 H :    0.029752

  Mayer bond orders larger than 0.100000
B(  0-C ,  1-C ) :   1.4849 B(  0-C ,  4-C ) :   0.1075 B(  0-C ,  5-S ) :   1.1967
B(  0-C , 25-H ) :   0.9600 B(  1-C ,  2-C ) :   1.3304 B(  1-C ,  3-H ) :   0.9744
B(  2-C ,  4-C ) :   1.5014 B(  2-C ,  6-C ) :   1.0263 B(  4-C ,  5-S ) :   1.1699
B(  4-C , 26-H ) :   0.9694 B(  6-C ,  7-C ) :   1.1145 B(  6-C ,  8-H ) :   0.9140
B(  6-C ,  9-H ) :   0.9138 B(  7-C , 10-C ) :   1.0866 B(  7-C , 11-H ) :   0.9264
B(  7-C , 12-H ) :   0.9265 B( 10-C , 13-C ) :   1.0845 B( 10-C , 14-H ) :   0.9319
B( 10-C , 15-H ) :   0.9320 B( 13-C , 16-C ) :   1.0896 B( 13-C , 17-H ) :   0.9349
B( 13-C , 18-H ) :   0.9348 B( 16-C , 19-C ) :   1.1133 B( 16-C , 20-H ) :   0.9381
B( 16-C , 21-H ) :   0.9382 B( 19-C , 22-H ) :   0.9646 B( 19-C , 23-H ) :   0.9603
B( 19-C , 24-H ) :   0.9646

Dispersion correction           -0.040899067
FINAL SINGLE POINT ENERGY      -788.553033411817

DIPOLE MOMENT
-------------
                                X             Y             Z
Electronic contribution:     -6.32123      31.56860       0.01725
Nuclear contribution   :      6.42449     -31.93196      -0.01669
                        -----------------------------------------
Total Dipole Moment    :      0.10326      -0.36336       0.00056
                        -----------------------------------------
Magnitude (a.u.)       :      0.37775
Magnitude (Debye)      :      0.96016

Rotational constants in cm-1:     0.145753     0.008338     0.007958
Rotational constants in MHz :  4369.578327   249.953908   238.567620

                             ****ORCA TERMINATED NORMALLY****
TOTAL RUN TIME: 0 days 0 hours 3 minutes 53 seconds 572 msec
