                         Program Version 4.2.0 -  RELEASE  -
|  1> ! RI BP86 def2-SVP def2/J D3BJ TIGHTSCF  Opt Grid3 FinalGrid5
|  2> %maxcore 3000
|  3> %geom
|  4> optimizehydrogens true
|  5> end
|  6>
|  7>
|  8> *xyz 0 1
|  9> C	-3.700125	-0.559796	-0.083722
| 10> C	-3.231593	0.767287	-0.108299
| 11> C	-1.826187	0.878874	-0.083672
| 12> H	-3.631755	1.292531	0.771961
| 13> C	-1.213575	-0.396730	-0.038975
| 14> S	-2.353712	-1.707365	-0.027451
| 15> Si	-0.451078	2.185875	-0.087840
| 16> C	0.881794	0.837219	-0.029010
| 17> C	0.230029	-0.419352	-0.009744
| 18> S	1.328169	-1.764868	0.048206
| 19> C	2.710529	-0.657818	0.047499
| 20> C	2.282627	0.683934	0.004080
| 21> H	2.669976	1.190671	0.900957
| 22> C	-0.465462	3.275777	1.451013
| 23> H	-0.494487	2.648816	2.364242
| 24> H	-1.352968	3.941877	1.457430
| 25> H	0.441863	3.913128	1.494674
| 26> C	-0.403115	3.204047	-1.674307
| 27> H	-0.395627	2.536224	-2.558536
| 28> H	0.505423	3.840133	-1.710555
| 29> H	-1.289309	3.867952	-1.746730
| 30> H	-3.629658	1.218925	-1.029405
| 31> H	2.723680	1.129468	-0.900454
| 32> H	-4.316987	-0.728981	0.806948
| 33> H	3.286893	-0.840448	0.962179
| 34> H	-4.266808	-0.816198	-0.986808
| 35> H	3.303953	-0.936000	-0.831507
| 36> **                         ****END OF INPUT****
 Total Charge           Charge          ....    0
 Multiplicity           Mult            ....    1
 Number of Electrons    NEL             ....  120
Dispersion correction           -0.062235132
FINAL SINGLE POINT ENERGY     -1474.861411242710
Dispersion correction            ... done
Dispersion correction           -0.062136491
FINAL SINGLE POINT ENERGY     -1474.866883480146
Dispersion correction            ... done
Dispersion correction           -0.062043518
FINAL SINGLE POINT ENERGY     -1474.869486352377
Dispersion correction            ... done
Dispersion correction           -0.062027090
FINAL SINGLE POINT ENERGY     -1474.869603052461
Dispersion correction            ... done
Dispersion correction           -0.062023016
FINAL SINGLE POINT ENERGY     -1474.869616524097
Dispersion correction            ... done
                    ***********************HURRAY********************

CARTESIAN COORDINATES (ANGSTROEM)
---------------------------------
  C     -3.700281   -0.568328   -0.081469
  C     -3.231728    0.758719   -0.107507
  C     -1.826317    0.870306   -0.083169
  H     -3.676418    1.355380    0.733537
  C     -1.213722   -0.405261   -0.037198
  S     -2.353882   -1.715862   -0.024149
  Si    -0.451184    2.177277   -0.088887
  C      0.881670    0.828660   -0.028793
  C      0.229885   -0.427878   -0.008119
  S      1.328007   -1.773352    0.051120
  C      2.710387   -0.666329    0.049074
  C      2.282505    0.675384    0.004288
  H      2.710444    1.259101    0.862903
  C     -0.465361    3.268806    1.448815
  H     -0.494801    2.639934    2.360880
  H     -1.351808    3.936829    1.458178
  H      0.441374    3.907349    1.495701
  C     -0.403396    3.193770   -1.676435
  H     -0.395960    2.522067   -2.557891
  H      0.504362    3.831252   -1.717370
  H     -1.288793    3.858769   -1.753383
  H     -3.645154    1.311659   -0.992933
  H      2.748321    1.214408   -0.863503
  H     -4.358330   -0.785277    0.787483
  H      3.325281   -0.901871    0.944309
  H     -4.321245   -0.831652   -0.964882
  H      3.358632   -0.948679   -0.808425

 Multiplicity           Mult            ....    1
 Number of Electrons    NEL             ....  120
 Basis Dimension        Dim             ....  264

ORBITAL ENERGIES
----------------

  NO   OCC          E(Eh)            E(eV)
   0   2.0000     -88.080145     -2396.7826
   1   2.0000     -88.080026     -2396.7794
   2   2.0000     -65.445850     -1780.8721
   3   2.0000      -9.939847      -270.4770
   4   2.0000      -9.939793      -270.4755
   5   2.0000      -9.931592      -270.2524
   6   2.0000      -9.931452      -270.2486
   7   2.0000      -9.913336      -269.7556
   8   2.0000      -9.913263      -269.7536
   9   2.0000      -9.902358      -269.4569
  10   2.0000      -9.902329      -269.4561
  11   2.0000      -9.889154      -269.0976
  12   2.0000      -9.889050      -269.0947
  13   2.0000      -7.678890      -208.9532
  14   2.0000      -7.678798      -208.9507
  15   2.0000      -5.706849      -155.2913
  16   2.0000      -5.706768      -155.2890
  17   2.0000      -5.702451      -155.1716
  18   2.0000      -5.702375      -155.1695
  19   2.0000      -5.695521      -154.9830
  20   2.0000      -5.695450      -154.9811
  21   2.0000      -5.053763      -137.5199
  22   2.0000      -3.469188       -94.4014
  23   2.0000      -3.468299       -94.3772
  24   2.0000      -3.467351       -94.3514
  25   2.0000      -0.807966       -21.9859
  26   2.0000      -0.790808       -21.5190
  27   2.0000      -0.703613       -19.1463
  28   2.0000      -0.673174       -18.3180
  29   2.0000      -0.662174       -18.0187
  30   2.0000      -0.630802       -17.1650
  31   2.0000      -0.625986       -17.0339
  32   2.0000      -0.609552       -16.5867
  33   2.0000      -0.547736       -14.9046
  34   2.0000      -0.519554       -14.1378
  35   2.0000      -0.491307       -13.3691
  36   2.0000      -0.457911       -12.4604
  37   2.0000      -0.442549       -12.0424
  38   2.0000      -0.432515       -11.7693
  39   2.0000      -0.429706       -11.6929
  40   2.0000      -0.398820       -10.8524
  41   2.0000      -0.391449       -10.6519
  42   2.0000      -0.367664       -10.0047
  43   2.0000      -0.365356        -9.9418
  44   2.0000      -0.359162        -9.7733
  45   2.0000      -0.354815        -9.6550
  46   2.0000      -0.351866        -9.5747
  47   2.0000      -0.332626        -9.0512
  48   2.0000      -0.323426        -8.8009
  49   2.0000      -0.316728        -8.6186
  50   2.0000      -0.310033        -8.4364
  51   2.0000      -0.309864        -8.4318
  52   2.0000      -0.302657        -8.2357
  53   2.0000      -0.299338        -8.1454
  54   2.0000      -0.274470        -7.4687
  55   2.0000      -0.264955        -7.2098
  56   2.0000      -0.258978        -7.0471
  57   2.0000      -0.238925        -6.5015
  58   2.0000      -0.173481        -4.7207
  59   2.0000      -0.141734        -3.8568
  60   0.0000      -0.074840        -2.0365
  61   0.0000      -0.002823        -0.0768
  62   0.0000       0.019842         0.5399
  63   0.0000       0.029175         0.7939
  64   0.0000       0.032496         0.8842

MULLIKEN ATOMIC CHARGES
-----------------------
   0 C :   -0.078749
   1 C :    0.107517
   2 C :   -0.269289
   3 H :    0.017327
   4 C :   -0.096406
   5 S :    0.000082
   6 Si:    0.468097
   7 C :   -0.269012
   8 C :   -0.095902
   9 S :    0.000367
  10 C :   -0.078858
  11 C :    0.106966
  12 H :    0.017438
  13 C :   -0.247703
  14 H :    0.072375
  15 H :    0.059390
  16 H :    0.059234
  17 C :   -0.247668
  18 H :    0.072334
  19 H :    0.059161
  20 H :    0.059197
  21 H :    0.017493
  22 H :    0.017591
  23 H :    0.062325
  24 H :    0.062265
  25 H :    0.062151
  26 H :    0.062277
Sum of atomic charges:    0.0000000

LOEWDIN ATOMIC CHARGES
----------------------
   0 C :   -0.144465
   1 C :   -0.077077
   2 C :   -0.219649
   3 H :    0.038721
   4 C :   -0.181477
   5 S :    0.298803
   6 Si:    0.627072
   7 C :   -0.219487
   8 C :   -0.181407
   9 S :    0.298351
  10 C :   -0.144099
  11 C :   -0.076960
  12 H :    0.038723
  13 C :   -0.255440
  14 H :    0.046154
  15 H :    0.040319
  16 H :    0.040281
  17 C :   -0.255451
  18 H :    0.046135
  19 H :    0.040296
  20 H :    0.040313
  21 H :    0.038683
  22 H :    0.038691
  23 H :    0.030777
  24 H :    0.030736
  25 H :    0.030745
  26 H :    0.030708

  Mayer bond orders larger than 0.100000
B(  0-C ,  1-C ) :   1.1171 B(  0-C ,  5-S ) :   0.9924 B(  0-C , 23-H ) :   0.9278
B(  0-C , 25-H ) :   0.9278 B(  1-C ,  2-C ) :   1.1151 B(  1-C ,  3-H ) :   0.8749
B(  1-C , 21-H ) :   0.8753 B(  2-C ,  4-C ) :   1.6438 B(  2-C ,  5-S ) :   0.1171
B(  2-C ,  6-Si) :   0.8992 B(  2-C ,  7-C ) :   0.1158 B(  4-C ,  5-S ) :   1.0433
B(  4-C ,  8-C ) :   1.1872 B(  6-Si,  7-C ) :   0.8990 B(  6-Si, 13-C ) :   1.0359
B(  6-Si, 17-C ) :   1.0356 B(  7-C ,  8-C ) :   1.6442 B(  7-C ,  9-S ) :   0.1170
B(  7-C , 11-C ) :   1.1154 B(  8-C ,  9-S ) :   1.0431 B(  9-S , 10-C ) :   0.9924
B( 10-C , 11-C ) :   1.1163 B( 10-C , 24-H ) :   0.9281 B( 10-C , 26-H ) :   0.9281
B( 11-C , 12-H ) :   0.8751 B( 11-C , 22-H ) :   0.8754 B( 13-C , 14-H ) :   0.9464
B( 13-C , 15-H ) :   0.9486 B( 13-C , 16-H ) :   0.9486 B( 17-C , 18-H ) :   0.9465
B( 17-C , 19-H ) :   0.9486 B( 17-C , 20-H ) :   0.9487

Dispersion correction           -0.062020835
FINAL SINGLE POINT ENERGY     -1474.869619668895

DIPOLE MOMENT
-------------
                                X             Y             Z
Electronic contribution:     -0.25660     -16.31403       0.40904
Nuclear contribution   :      0.27407      17.38384      -0.43618
                        -----------------------------------------
Total Dipole Moment    :      0.01747       1.06981      -0.02714
                        -----------------------------------------
Magnitude (a.u.)       :      1.07029
Magnitude (Debye)      :      2.72047

Rotational constants in cm-1:     0.021696     0.018833     0.011259
Rotational constants in MHz :   650.415735   564.593021   337.537218

                             ****ORCA TERMINATED NORMALLY****
TOTAL RUN TIME: 0 days 0 hours 5 minutes 2 seconds 216 msec
