                         Program Version 4.2.0 -  RELEASE  -
|  1> ! RI BP86 def2-SVP def2/J D3BJ TIGHTSCF  Opt Grid3 FinalGrid5
|  2> %maxcore 3000
|  3> %geom
|  4> Constraints
|  5> {D 1 0 31 32 0.0 C}
|  6> {D 11 10 21 22 0.0 C}
|  7> {D 25 24 50 51 0.0 C}
|  8> end
|  9> end
| 10>
| 11> *xyz 0 1
| 12> C	-3.602981	-0.029583	-0.016224
| 13> C	-3.052991	1.235207	-0.235554
| 14> C	-1.665181	1.196787	-0.089294
| 15> H	-3.632991	2.117947	-0.476214
| 16> C	-1.142821	-0.043143	0.198516
| 17> S	-2.357011	-1.191913	0.348266
| 18> Si	-0.294211	2.436537	-0.201314
| 19> C	0.953969	1.090257	0.092776
| 20> C	0.288799	-0.101743	0.292556
| 21> S	1.370349	-1.360193	0.565586
| 22> C	2.746099	-0.323603	0.329866
| 23> C	2.344429	0.994127	0.102926
| 24> H	3.027989	1.816357	-0.070814
| 25> C	-0.347421	3.688387	1.171746
| 26> H	-0.461181	3.200797	2.145166
| 27> H	-1.188331	4.376487	1.042126
| 28> H	0.571979	4.281007	1.199536
| 29> C	-0.121861	3.322457	-1.809124
| 30> H	-0.053551	2.620837	-2.646274
| 31> H	0.780439	3.942107	-1.823344
| 32> H	-0.977361	3.979017	-1.994984
| 33> C	4.116989	-0.795253	0.362546
| 34> C	4.688309	-2.016713	0.105096
| 35> S	5.389349	0.325257	0.744666
| 36> C	6.666559	-0.781533	0.377776
| 37> C	6.112319	-2.005063	0.106146
| 38> C	4.258309	-3.345173	-0.268684
| 39> C	6.575659	-3.319053	-0.275354
| 40> N	5.426149	-4.069623	-0.428984
| 41> O	3.120249	-3.744503	-0.444434
| 42> O	7.724989	-3.676483	-0.466974
| 43> C	-5.013821	-0.370993	-0.038894
| 44> C	-5.678011	-1.570573	-0.152804
| 45> C	-7.085481	-1.446333	-0.104294
| 46> C	-7.542911	-0.171173	0.026866
| 47> S	-6.210311	0.904327	0.110516
| 48> H	-8.563491	0.184427	0.079446
| 49> C	-7.687981	-2.746263	-0.215874
| 50> C	-5.381811	-2.977963	-0.318714
| 51> N	-6.618671	-3.610313	-0.326444
| 52> O	-4.291721	-3.507403	-0.449574
| 53> O	-8.881761	-2.990983	-0.211814
| 54> C	5.425309	-5.450583	-0.839444
| 55> H	6.438769	-5.859303	-0.854754
| 56> H	4.985099	-5.520173	-1.838614
| 57> H	4.803059	-6.026583	-0.148004
| 58> C	-6.757071	-5.037483	-0.457014
| 59> H	-7.809631	-5.329333	-0.496284
| 60> H	-6.274131	-5.515373	0.400546
| 61> H	-6.245961	-5.364053	-1.367184
| 62> C	8.035319	-0.316143	0.378056
| 63> C	8.468829	0.960107	0.014566
| 64> C	9.856559	1.051817	0.135726
| 65> H	7.809619	1.750527	-0.323724
| 66> C	10.477149	-0.100963	0.556636
| 67> S	9.364699	-1.318213	0.874936
| 68> Si	11.133709	2.362427	-0.170864
| 69> C	11.907399	-0.039293	0.630796
| 70> C	12.490349	1.165787	0.279346
| 71> C	11.007599	3.802927	0.993846
| 72> H	11.010079	3.469777	2.036396
| 73> H	10.083789	4.364837	0.824876
| 74> H	11.847909	4.491127	0.860556
| 75> C	11.183769	3.006277	-1.901964
| 76> H	11.260159	2.191487	-2.628554
| 77> H	12.041309	3.669057	-2.053704
| 78> H	10.278849	3.575777	-2.136694
| 79> S	13.064079	-1.186773	1.049816
| 80> C	13.886629	1.184497	0.337436
| 81> C	14.344249	-0.056553	0.751046
| 82> H	14.538209	2.016947	0.101976
| 83> H	15.368749	-0.370633	0.895136
| 84> **                         ****END OF INPUT****
 Total Charge           Charge          ....    0
 Multiplicity           Mult            ....    1
 Number of Electrons    NEL             ....  398
Dispersion correction           -0.199424894
FINAL SINGLE POINT ENERGY     -4686.314879424852
Dispersion correction            ... done
Dispersion correction           -0.197671318
FINAL SINGLE POINT ENERGY     -4685.779337535763
Dispersion correction            ... done
                         Program Version 4.2.0 -  RELEASE  -
|  1> ! RI BP86 def2-SVP def2/J D3BJ TIGHTSCF  Opt Grid3 FinalGrid5
|  2> %maxcore 3000
|  3> %geom
|  4> Constraints
|  5> {D 1 0 31 32 180.0 C}
|  6> {D 11 10 21 22 180.0 C}
|  7> {D 25 24 50 51 180.0 C}
|  8> end
|  9> end
| 10>
| 11> *xyz 0 1
| 12> C	-3.602981	-0.029583	-0.016224
| 13> C	-3.052991	1.235207	-0.235554
| 14> C	-1.665181	1.196787	-0.089294
| 15> H	-3.632991	2.117947	-0.476214
| 16> C	-1.142821	-0.043143	0.198516
| 17> S	-2.357011	-1.191913	0.348266
| 18> Si	-0.294211	2.436537	-0.201314
| 19> C	0.953969	1.090257	0.092776
| 20> C	0.288799	-0.101743	0.292556
| 21> S	1.370349	-1.360193	0.565586
| 22> C	2.746099	-0.323603	0.329866
| 23> C	2.344429	0.994127	0.102926
| 24> H	3.027989	1.816357	-0.070814
| 25> C	-0.347421	3.688387	1.171746
| 26> H	-0.461181	3.200797	2.145166
| 27> H	-1.188331	4.376487	1.042126
| 28> H	0.571979	4.281007	1.199536
| 29> C	-0.121861	3.322457	-1.809124
| 30> H	-0.053551	2.620837	-2.646274
| 31> H	0.780439	3.942107	-1.823344
| 32> H	-0.977361	3.979017	-1.994984
| 33> C	4.116989	-0.795253	0.362546
| 34> C	4.688309	-2.016713	0.105096
| 35> S	5.389349	0.325257	0.744666
| 36> C	6.666559	-0.781533	0.377776
| 37> C	6.112319	-2.005063	0.106146
| 38> C	4.258309	-3.345173	-0.268684
| 39> C	6.575659	-3.319053	-0.275354
| 40> N	5.426149	-4.069623	-0.428984
| 41> O	3.120249	-3.744503	-0.444434
| 42> O	7.724989	-3.676483	-0.466974
| 43> C	-5.013821	-0.370993	-0.038894
| 44> C	-5.678011	-1.570573	-0.152804
| 45> C	-7.085481	-1.446333	-0.104294
| 46> C	-7.542911	-0.171173	0.026866
| 47> S	-6.210311	0.904327	0.110516
| 48> H	-8.563491	0.184427	0.079446
| 49> C	-7.687981	-2.746263	-0.215874
| 50> C	-5.381811	-2.977963	-0.318714
| 51> N	-6.618671	-3.610313	-0.326444
| 52> O	-4.291721	-3.507403	-0.449574
| 53> O	-8.881761	-2.990983	-0.211814
| 54> C	5.425309	-5.450583	-0.839444
| 55> H	6.438769	-5.859303	-0.854754
| 56> H	4.985099	-5.520173	-1.838614
| 57> H	4.803059	-6.026583	-0.148004
| 58> C	-6.757071	-5.037483	-0.457014
| 59> H	-7.809631	-5.329333	-0.496284
| 60> H	-6.274131	-5.515373	0.400546
| 61> H	-6.245961	-5.364053	-1.367184
| 62> C	8.035319	-0.316143	0.378056
| 63> C	8.468829	0.960107	0.014566
| 64> C	9.856559	1.051817	0.135726
| 65> H	7.809619	1.750527	-0.323724
| 66> C	10.477149	-0.100963	0.556636
| 67> S	9.364699	-1.318213	0.874936
| 68> Si	11.133709	2.362427	-0.170864
| 69> C	11.907399	-0.039293	0.630796
| 70> C	12.490349	1.165787	0.279346
| 71> C	11.007599	3.802927	0.993846
| 72> H	11.010079	3.469777	2.036396
| 73> H	10.083789	4.364837	0.824876
| 74> H	11.847909	4.491127	0.860556
| 75> C	11.183769	3.006277	-1.901964
| 76> H	11.260159	2.191487	-2.628554
| 77> H	12.041309	3.669057	-2.053704
| 78> H	10.278849	3.575777	-2.136694
| 79> S	13.064079	-1.186773	1.049816
| 80> C	13.886629	1.184497	0.337436
| 81> C	14.344249	-0.056553	0.751046
| 82> H	14.538209	2.016947	0.101976
| 83> H	15.368749	-0.370633	0.895136
| 84> *
| 85>
| 86>                          ****END OF INPUT****
Dispersion correction           -0.209071969
FINAL SINGLE POINT ENERGY     -4687.093416446688
Dispersion correction            ... done
FINAL SINGLE POINT ENERGY     -4687.120310548808
FINAL SINGLE POINT ENERGY     -4687.132029939371
FINAL SINGLE POINT ENERGY     -4687.136054814536
FINAL SINGLE POINT ENERGY     -4687.137843699741
FINAL SINGLE POINT ENERGY     -4687.138426568249
FINAL SINGLE POINT ENERGY     -4687.138506863064
FINAL SINGLE POINT ENERGY     -4687.138584546530
FINAL SINGLE POINT ENERGY     -4687.138597647516
FINAL SINGLE POINT ENERGY     -4687.138617010602
Dispersion correction            ... done
Dispersion correction           -0.209052322
FINAL SINGLE POINT ENERGY     -4687.138623403067
Dispersion correction            ... done
Dispersion correction           -0.209057410
FINAL SINGLE POINT ENERGY     -4687.138627219110
Dispersion correction            ... done
                    ***********************HURRAY********************

CARTESIAN COORDINATES (ANGSTROEM)
---------------------------------
  C     -3.723381    0.007268   -0.255976
  C     -3.254738    1.334310   -0.280649
  C     -1.849323    1.445783   -0.256006
  H     -3.946710    2.189160   -0.316711
  C     -1.236818    0.170132   -0.211197
  S     -2.377064   -1.140408   -0.199590
  Si    -0.474106    2.752670   -0.260252
  C      0.858653    1.403908   -0.201291
  C      0.206784    0.147392   -0.181937
  S      1.304811   -1.198210   -0.123861
  C      2.687263   -0.091275   -0.124630
  C      2.259473    1.250509   -0.168163
  H      2.978376    2.083475   -0.175360
  C     -0.488428    3.842695    1.278514
  H     -0.516144    3.218486    2.193667
  H     -1.376296    4.508168    1.283587
  H      0.418432    4.480739    1.319369
  C     -0.426030    3.770712   -1.846799
  H     -0.420719    3.106863   -2.733970
  H      0.483909    4.404817   -1.880863
  H     -1.310495    4.437212   -1.915328
  C      4.042111   -0.561985   -0.084572
  C      4.587929   -1.842352   -0.040201
  S      5.376577    0.616520   -0.087731
  C      6.636660   -0.638740   -0.025878
  C      6.012968   -1.885473   -0.007744
  C      4.074105   -3.232147   -0.011840
  C      6.440027   -3.302031    0.042521
  N      5.231149   -4.045448    0.035957
  O      2.926152   -3.659780   -0.022645
  O      7.560668   -3.795833    0.084542
  C     -5.092838   -0.429816   -0.272310
  C     -5.670714   -1.698207   -0.251344
  C     -7.099964   -1.693694   -0.280844
  C     -7.656631   -0.437741   -0.324763
  S     -6.402245    0.776752   -0.330247
  H     -8.713000   -0.144280   -0.353965
  C     -7.584838   -3.104267   -0.254529
  C     -5.209996   -3.105166   -0.205327
  N     -6.398031   -3.880508   -0.209307
  O     -4.080875   -3.576332   -0.170618
  O     -8.718818   -3.554132   -0.267906
  C      5.184692   -5.491766    0.076304
  H      6.223022   -5.852769    0.197747
  H      4.755346   -5.901512   -0.860620
  H      4.559294   -5.836227    0.923656
  C     -6.395573   -5.327905   -0.171072
  H     -7.448602   -5.661165   -0.228296
  H     -5.935560   -5.697083    0.767787
  H     -5.819875   -5.739784   -1.023761
  C      8.016608   -0.248357   -0.004627
  C      8.527066    1.063827   -0.027031
  C      9.935787    1.132377    0.002982
  H      7.861337    1.939238   -0.065524
  C     10.507467   -0.159617    0.049527
  S      9.331236   -1.435356    0.056348
  Si    11.356521    2.390956    0.003982
  C     11.954382   -0.222025    0.084226
  C     12.648287    1.004177    0.068300
  C     11.367969    3.485329    1.540608
  H     11.310894    2.864938    2.457018
  H     10.504081    4.181739    1.536780
  H     12.296423    4.091100    1.587532
  C     11.438270    3.408683   -1.582397
  H     11.425561    2.744801   -2.469515
  H     12.366468    4.015809   -1.615068
  H     10.573721    4.100726   -1.652597
  S     13.027404   -1.590846    0.144345
  C     14.059213    0.802993    0.106066
  C     14.416410   -0.538043    0.149077
  H     14.805786    1.610169    0.102080
  H     15.422038   -0.975480    0.183373

 Multiplicity           Mult            ....    1
 Number of Electrons    NEL             ....  398
 Basis Dimension        Dim             ....  824

ORBITAL ENERGIES
----------------

  NO   OCC          E(Eh)            E(eV)
   0   2.0000     -88.141757     -2398.4591
   1   2.0000     -88.135892     -2398.2995
   2   2.0000     -88.131238     -2398.1729
   3   2.0000     -88.130219     -2398.1452
   4   2.0000     -88.129211     -2398.1177
   5   2.0000     -88.128804     -2398.1067
   6   2.0000     -65.464397     -1781.3768
   7   2.0000     -65.461318     -1781.2930
   8   2.0000     -18.772116      -510.8152
   9   2.0000     -18.771431      -510.7966
  10   2.0000     -18.770911      -510.7825
  11   2.0000     -18.769539      -510.7451
  12   2.0000     -14.064304      -382.7092
  13   2.0000     -14.061830      -382.6419
  14   2.0000     -10.027570      -272.8641
  15   2.0000     -10.026452      -272.8336
  16   2.0000     -10.024770      -272.7879
  17   2.0000     -10.023320      -272.7484
  18   2.0000      -9.983012      -271.6516
  19   2.0000      -9.980411      -271.5808
  20   2.0000      -9.979676      -271.5608
  21   2.0000      -9.968741      -271.2632
  22   2.0000      -9.967694      -271.2347
  23   2.0000      -9.967136      -271.2196
  24   2.0000      -9.964248      -271.1410
  25   2.0000      -9.963736      -271.1270
  26   2.0000      -9.962621      -271.0967
  27   2.0000      -9.961327      -271.0615
  28   2.0000      -9.959438      -271.0101
  29   2.0000      -9.952954      -270.8336
  30   2.0000      -9.951468      -270.7932
  31   2.0000      -9.949284      -270.7338
  32   2.0000      -9.942285      -270.5433
  33   2.0000      -9.941556      -270.5235
  34   2.0000      -9.940287      -270.4889
  35   2.0000      -9.939527      -270.4683
  36   2.0000      -9.938961      -270.4529
  37   2.0000      -9.938172      -270.4314
  38   2.0000      -9.937796      -270.4212
  39   2.0000      -9.933221      -270.2967
  40   2.0000      -9.920275      -269.9444
  41   2.0000      -9.920019      -269.9374
  42   2.0000      -9.916405      -269.8391
  43   2.0000      -9.915446      -269.8130
  44   2.0000      -9.913713      -269.7658
  45   2.0000      -9.913679      -269.7649
  46   2.0000      -9.911359      -269.7018
  47   2.0000      -9.911330      -269.7010
  48   2.0000      -7.737656      -210.5523
  49   2.0000      -7.731474      -210.3841
  50   2.0000      -7.726547      -210.2500
  51   2.0000      -7.725445      -210.2201
  52   2.0000      -7.725381      -210.2183
  53   2.0000      -7.724089      -210.1832
  54   2.0000      -5.764995      -156.8735
  55   2.0000      -5.760195      -156.7429
  56   2.0000      -5.759016      -156.7108
  57   2.0000      -5.756805      -156.6506
  58   2.0000      -5.754447      -156.5865
  59   2.0000      -5.753619      -156.5639
  60   2.0000      -5.752548      -156.5348
  61   2.0000      -5.752267      -156.5271
  62   2.0000      -5.751194      -156.4979
  63   2.0000      -5.749970      -156.4646
  64   2.0000      -5.749258      -156.4453
  65   2.0000      -5.748168      -156.4156
  66   2.0000      -5.747874      -156.4076
  67   2.0000      -5.746807      -156.3786
  68   2.0000      -5.745778      -156.3506
  69   2.0000      -5.744965      -156.3284
  70   2.0000      -5.744656      -156.3200
  71   2.0000      -5.743293      -156.2829
  72   2.0000      -5.072740      -138.0363
  73   2.0000      -5.069675      -137.9529
  74   2.0000      -3.488448       -94.9255
  75   2.0000      -3.487203       -94.8916
  76   2.0000      -3.486017       -94.8593
  77   2.0000      -3.485323       -94.8405
  78   2.0000      -3.484146       -94.8084
  79   2.0000      -3.483007       -94.7774
  80   2.0000      -0.966243       -26.2928
  81   2.0000      -0.964020       -26.2323
  82   2.0000      -0.946802       -25.7638
  83   2.0000      -0.944216       -25.6934
  84   2.0000      -0.868251       -23.6263
  85   2.0000      -0.866248       -23.5718
  86   2.0000      -0.834580       -22.7101
  87   2.0000      -0.830901       -22.6100
  88   2.0000      -0.823821       -22.4173
  89   2.0000      -0.817297       -22.2398
  90   2.0000      -0.803793       -21.8723
  91   2.0000      -0.797048       -21.6888
  92   2.0000      -0.736114       -20.0307
  93   2.0000      -0.728501       -19.8235
  94   2.0000      -0.726286       -19.7633
  95   2.0000      -0.714902       -19.4535
  96   2.0000      -0.696176       -18.9439
  97   2.0000      -0.689072       -18.7506
  98   2.0000      -0.683675       -18.6037
  99   2.0000      -0.675119       -18.3709
 100   2.0000      -0.673807       -18.3352
 101   2.0000      -0.668568       -18.1927
 102   2.0000      -0.644386       -17.5346
 103   2.0000      -0.641549       -17.4574
 104   2.0000      -0.641217       -17.4484
 105   2.0000      -0.639073       -17.3901
 106   2.0000      -0.636625       -17.3234
 107   2.0000      -0.622384       -16.9359
 108   2.0000      -0.620912       -16.8959
 109   2.0000      -0.618491       -16.8300
 110   2.0000      -0.601083       -16.3563
 111   2.0000      -0.588281       -16.0079
 112   2.0000      -0.576106       -15.6766
 113   2.0000      -0.556534       -15.1441
 114   2.0000      -0.549350       -14.9486
 115   2.0000      -0.543429       -14.7874
 116   2.0000      -0.531825       -14.4717
 117   2.0000      -0.529271       -14.4022
 118   2.0000      -0.525307       -14.2943
 119   2.0000      -0.519523       -14.1370
 120   2.0000      -0.507156       -13.8004
 121   2.0000      -0.490904       -13.3582
 122   2.0000      -0.482569       -13.1314
 123   2.0000      -0.476722       -12.9723
 124   2.0000      -0.471940       -12.8421
 125   2.0000      -0.464281       -12.6337
 126   2.0000      -0.462970       -12.5981
 127   2.0000      -0.450687       -12.2638
 128   2.0000      -0.437756       -11.9120
 129   2.0000      -0.437228       -11.8976
 130   2.0000      -0.436062       -11.8658
 131   2.0000      -0.429930       -11.6990
 132   2.0000      -0.427750       -11.6397
 133   2.0000      -0.426688       -11.6108
 134   2.0000      -0.417672       -11.3654
 135   2.0000      -0.412004       -11.2112
 136   2.0000      -0.408398       -11.1131
 137   2.0000      -0.406314       -11.0564
 138   2.0000      -0.398901       -10.8546
 139   2.0000      -0.393433       -10.7059
 140   2.0000      -0.390350       -10.6220
 141   2.0000      -0.389911       -10.6100
 142   2.0000      -0.386268       -10.5109
 143   2.0000      -0.380563       -10.3557
 144   2.0000      -0.379992       -10.3401
 145   2.0000      -0.379872       -10.3368
 146   2.0000      -0.379207       -10.3188
 147   2.0000      -0.377969       -10.2851
 148   2.0000      -0.375870       -10.2279
 149   2.0000      -0.375290       -10.2122
 150   2.0000      -0.375001       -10.2043
 151   2.0000      -0.366899        -9.9838
 152   2.0000      -0.366691        -9.9782
 153   2.0000      -0.363746        -9.8980
 154   2.0000      -0.361872        -9.8470
 155   2.0000      -0.361396        -9.8341
 156   2.0000      -0.361038        -9.8244
 157   2.0000      -0.359651        -9.7866
 158   2.0000      -0.357857        -9.7378
 159   2.0000      -0.356186        -9.6923
 160   2.0000      -0.355033        -9.6609
 161   2.0000      -0.353746        -9.6259
 162   2.0000      -0.353217        -9.6115
 163   2.0000      -0.351679        -9.5697
 164   2.0000      -0.351376        -9.5614
 165   2.0000      -0.348785        -9.4909
 166   2.0000      -0.348233        -9.4759
 167   2.0000      -0.342153        -9.3104
 168   2.0000      -0.340225        -9.2580
 169   2.0000      -0.339295        -9.2327
 170   2.0000      -0.330779        -9.0009
 171   2.0000      -0.329170        -8.9572
 172   2.0000      -0.324344        -8.8258
 173   2.0000      -0.319960        -8.7066
 174   2.0000      -0.314046        -8.5456
 175   2.0000      -0.298819        -8.1313
 176   2.0000      -0.292346        -7.9551
 177   2.0000      -0.286496        -7.7960
 178   2.0000      -0.285963        -7.7815
 179   2.0000      -0.283439        -7.7128
 180   2.0000      -0.282444        -7.6857
 181   2.0000      -0.280010        -7.6195
 182   2.0000      -0.271200        -7.3797
 183   2.0000      -0.255781        -6.9602
 184   2.0000      -0.253848        -6.9075
 185   2.0000      -0.245814        -6.6889
 186   2.0000      -0.243471        -6.6252
 187   2.0000      -0.242314        -6.5937
 188   2.0000      -0.241354        -6.5676
 189   2.0000      -0.240127        -6.5342
 190   2.0000      -0.239829        -6.5261
 191   2.0000      -0.236821        -6.4442
 192   2.0000      -0.233896        -6.3646
 193   2.0000      -0.230321        -6.2674
 194   2.0000      -0.223412        -6.0793
 195   2.0000      -0.222486        -6.0541
 196   2.0000      -0.221443        -6.0258
 197   2.0000      -0.192246        -5.2313
 198   2.0000      -0.173432        -4.7193
 199   0.0000      -0.121570        -3.3081
 200   0.0000      -0.109056        -2.9676
 201   0.0000      -0.095757        -2.6057
 202   0.0000      -0.091427        -2.4879
 203   0.0000      -0.074537        -2.0283

MULLIKEN ATOMIC CHARGES
-----------------------
   0 C :   -0.083451
   1 C :   -0.065808
   2 C :   -0.110541
   3 H :    0.009165
   4 C :   -0.089196
   5 S :    0.212744
   6 Si:    0.470959
   7 C :   -0.108491
   8 C :   -0.088388
   9 S :    0.213308
  10 C :   -0.083663
  11 C :   -0.066675
  12 H :    0.008489
  13 C :   -0.246994
  14 H :    0.078817
  15 H :    0.065307
  16 H :    0.064944
  17 C :   -0.246867
  18 H :    0.078734
  19 H :    0.064858
  20 H :    0.065056
  21 C :   -0.089255
  22 C :   -0.013631
  23 S :    0.104396
  24 C :   -0.084703
  25 C :   -0.025144
  26 C :    0.159503
  27 C :    0.167141
  28 N :   -0.297163
  29 O :   -0.164600
  30 O :   -0.164197
  31 C :   -0.110714
  32 C :   -0.005268
  33 C :    0.007508
  34 C :   -0.140569
  35 S :    0.115368
  36 H :    0.062169
  37 C :    0.182553
  38 C :    0.169069
  39 N :   -0.303533
  40 O :   -0.160984
  41 O :   -0.150967
  42 C :    0.072347
  43 H :    0.062832
  44 H :    0.056755
  45 H :    0.057437
  46 C :    0.072074
  47 H :    0.062787
  48 H :    0.057730
  49 H :    0.058077
  50 C :   -0.088248
  51 C :   -0.063321
  52 C :   -0.115078
  53 H :    0.007553
  54 C :   -0.079214
  55 S :    0.202609
  56 Si:    0.472710
  57 C :   -0.123990
  58 C :   -0.123635
  59 C :   -0.247197
  60 H :    0.077507
  61 H :    0.063587
  62 H :    0.064176
  63 C :   -0.247093
  64 H :    0.077419
  65 H :    0.064078
  66 H :    0.063353
  67 S :    0.146590
  68 C :   -0.004384
  69 C :   -0.108773
  70 H :    0.010624
  71 H :    0.051399
Sum of atomic charges:    0.0000000

LOEWDIN ATOMIC CHARGES
----------------------
   0 C :   -0.191151
   1 C :   -0.057724
   2 C :   -0.198683
   3 H :    0.031364
   4 C :   -0.189285
   5 S :    0.481558
   6 Si:    0.638369
   7 C :   -0.197295
   8 C :   -0.191720
   9 S :    0.481108
  10 C :   -0.187856
  11 C :   -0.059832
  12 H :    0.030690
  13 C :   -0.253383
  14 H :    0.048984
  15 H :    0.043583
  16 H :    0.043496
  17 C :   -0.253390
  18 H :    0.048927
  19 H :    0.043519
  20 H :    0.043557
  21 C :   -0.148498
  22 C :   -0.100321
  23 S :    0.423525
  24 C :   -0.143919
  25 C :   -0.104462
  26 C :    0.061365
  27 C :    0.063189
  28 N :   -0.027770
  29 O :   -0.161202
  30 O :   -0.162728
  31 C :   -0.148735
  32 C :   -0.107996
  33 C :   -0.091720
  34 C :   -0.154498
  35 S :    0.440756
  36 H :    0.044337
  37 C :    0.067958
  38 C :    0.063013
  39 N :   -0.029835
  40 O :   -0.157632
  41 O :   -0.149869
  42 C :    0.015758
  43 H :    0.040490
  44 H :    0.037571
  45 H :    0.038622
  46 C :    0.015622
  47 H :    0.040596
  48 H :    0.038296
  49 H :    0.038819
  50 C :   -0.194329
  51 C :   -0.057266
  52 C :   -0.202936
  53 H :    0.030357
  54 C :   -0.187474
  55 S :    0.475381
  56 Si:    0.639041
  57 C :   -0.199501
  58 C :   -0.203699
  59 C :   -0.253753
  60 H :    0.048330
  61 H :    0.042724
  62 H :    0.043048
  63 C :   -0.253719
  64 H :    0.048288
  65 H :    0.043022
  66 H :    0.042709
  67 S :    0.435400
  68 C :   -0.068160
  69 C :   -0.191966
  70 H :    0.036481
  71 H :    0.032455

  Mayer bond orders larger than 0.100000
B(  0-C ,  1-C ) :   1.3795 B(  0-C ,  5-S ) :   1.1137 B(  0-C , 31-C ) :   1.2309
B(  1-C ,  2-C ) :   1.3131 B(  1-C ,  3-H ) :   0.9708 B(  2-C ,  4-C ) :   1.4153
B(  2-C ,  6-Si) :   0.8739 B(  4-C ,  5-S ) :   1.1011 B(  4-C ,  8-C ) :   1.1929
B(  6-Si,  7-C ) :   0.8745 B(  6-Si, 13-C ) :   1.0511 B(  6-Si, 17-C ) :   1.0509
B(  7-C ,  8-C ) :   1.4141 B(  7-C , 11-C ) :   1.3133 B(  8-C ,  9-S ) :   1.0971
B(  9-S , 10-C ) :   1.1121 B( 10-C , 11-C ) :   1.3709 B( 10-C , 21-C ) :   1.2385
B( 11-C , 12-H ) :   0.9698 B( 13-C , 14-H ) :   0.9445 B( 13-C , 15-H ) :   0.9476
B( 13-C , 16-H ) :   0.9475 B( 17-C , 18-H ) :   0.9447 B( 17-C , 19-H ) :   0.9474
B( 17-C , 20-H ) :   0.9476 B( 21-C , 22-C ) :   1.4467 B( 21-C , 23-S ) :   1.0877
B( 22-C , 25-C ) :   1.2457 B( 22-C , 26-C ) :   0.9192 B( 23-S , 24-C ) :   1.0928
B( 24-C , 25-C ) :   1.4396 B( 24-C , 50-C ) :   1.2423 B( 25-C , 27-C ) :   0.9277
B( 26-C , 28-N ) :   1.0512 B( 26-C , 29-O ) :   2.1081 B( 27-C , 28-N ) :   1.0460
B( 27-C , 30-O ) :   2.0940 B( 28-N , 42-C ) :   0.9649 B( 31-C , 32-C ) :   1.4383
B( 31-C , 35-S ) :   1.1200 B( 32-C , 33-C ) :   1.2540 B( 32-C , 38-C ) :   0.9275
B( 33-C , 34-C ) :   1.5288 B( 33-C , 37-C ) :   0.8995 B( 34-C , 35-S ) :   1.1412
B( 34-C , 36-H ) :   0.9557 B( 37-C , 39-N ) :   1.0386 B( 37-C , 41-O ) :   2.1607
B( 38-C , 39-N ) :   1.0393 B( 38-C , 40-O ) :   2.1164 B( 39-N , 46-C ) :   0.9645
B( 42-C , 43-H ) :   0.9512 B( 42-C , 44-H ) :   0.9673 B( 42-C , 45-H ) :   0.9646
B( 46-C , 47-H ) :   0.9511 B( 46-C , 48-H ) :   0.9667 B( 46-C , 49-H ) :   0.9653
B( 50-C , 51-C ) :   1.3761 B( 50-C , 55-S ) :   1.1064 B( 51-C , 52-C ) :   1.3095
B( 51-C , 53-H ) :   0.9694 B( 52-C , 54-C ) :   1.4272 B( 52-C , 56-Si) :   0.8749
B( 54-C , 55-S ) :   1.1050 B( 54-C , 57-C ) :   1.1829 B( 56-Si, 58-C ) :   0.8795
B( 56-Si, 59-C ) :   1.0486 B( 56-Si, 63-C ) :   1.0483 B( 57-C , 58-C ) :   1.4614
B( 57-C , 67-S ) :   1.1230 B( 58-C , 68-C ) :   1.2728 B( 59-C , 60-H ) :   0.9452
B( 59-C , 61-H ) :   0.9478 B( 59-C , 62-H ) :   0.9479 B( 63-C , 64-H ) :   0.9454
B( 63-C , 65-H ) :   0.9479 B( 63-C , 66-H ) :   0.9479 B( 67-S , 69-C ) :   1.1542
B( 68-C , 69-C ) :   1.5075 B( 68-C , 70-H ) :   0.9813 B( 69-C , 71-H ) :   0.9601

Dispersion correction           -0.209059920
FINAL SINGLE POINT ENERGY     -4687.138628773674

DIPOLE MOMENT
-------------
                                X             Y             Z
Electronic contribution:    -18.91179     -26.04894       0.20078
Nuclear contribution   :     20.30884      28.89347      -0.24238
                        -----------------------------------------
Total Dipole Moment    :      1.39705       2.84453      -0.04160
                        -----------------------------------------
Magnitude (a.u.)       :      3.16936
Magnitude (Debye)      :      8.05587

Rotational constants in cm-1:     0.004030     0.000470     0.000424
Rotational constants in MHz :   120.808073    14.089875    12.723517

                             ****ORCA TERMINATED NORMALLY****
TOTAL RUN TIME: 0 days 0 hours 55 minutes 3 seconds 836 msec
