                         Program Version 4.2.0 -  RELEASE  -
|  1> ! RI BP86 def2-SVP def2/J D3BJ TIGHTSCF  Opt Grid3 FinalGrid5
|  2> %maxcore 3000
|  3> %geom
|  4> optimizehydrogens true
|  5> end
|  6>
|  7>
|  8> *xyz 0 1
|  9> C	0.688030	0.706585	-0.053366
| 10> C	1.233848	-0.573782	-0.008995
| 11> S	2.022496	1.885090	-0.056525
| 12> C	3.282579	0.629830	0.005328
| 13> C	2.658887	-0.616903	0.023462
| 14> C	0.720024	-1.963577	0.019366
| 15> C	3.085946	-2.033461	0.073727
| 16> N	1.877068	-2.776878	0.067163
| 17> O	-0.427929	-2.391210	0.008561
| 18> O	4.206587	-2.527263	0.115748
| 19> C	1.830611	-4.223196	0.107510
| 20> H	2.868941	-4.584199	0.228953
| 21> H	1.401265	-4.632942	-0.829414
| 22> H	1.205213	-4.567657	0.954862
| 23> H	-0.331756	1.060885	-0.083518
| 24> H	4.321680	0.923788	0.021330
| 25> **                         ****END OF INPUT****
 Total Charge           Charge          ....    0
 Multiplicity           Mult            ....    1
 Number of Electrons    NEL             ....   86
Dispersion correction           -0.031438956
FINAL SINGLE POINT ENERGY      -872.785080710097
Dispersion correction            ... done
Dispersion correction           -0.031426968
FINAL SINGLE POINT ENERGY      -872.785482413045
Dispersion correction            ... done
Dispersion correction           -0.031429217
FINAL SINGLE POINT ENERGY      -872.785522515965
Dispersion correction            ... done
Dispersion correction           -0.031436662
FINAL SINGLE POINT ENERGY      -872.785565077277
Dispersion correction            ... done
                    ***********************HURRAY********************

CARTESIAN COORDINATES (ANGSTROEM)
---------------------------------
  C      0.687962    0.709379   -0.054273
  C      1.233912   -0.570917   -0.009480
  S      2.022279    1.888055   -0.056502
  C      3.282478    0.632958    0.006285
  C      2.658932   -0.613855    0.024001
  C      0.720245   -1.960777    0.018545
  C      3.086136   -2.030357    0.074606
  N      1.877358   -2.773929    0.067192
  O     -0.427645   -2.388557    0.006926
  O      4.206810   -2.524015    0.117443
  C      1.831057   -4.220252    0.107539
  H      2.870135   -4.581063    0.221941
  H      1.394557   -4.627559   -0.826905
  H      1.210616   -4.563891    0.958725
  H     -0.356803    1.039699   -0.085817
  H      4.345460    0.900188    0.023967

 Multiplicity           Mult            ....    1
 Number of Electrons    NEL             ....   86
 Basis Dimension        Dim             ....  183

ORBITAL ENERGIES
----------------

  NO   OCC          E(Eh)            E(eV)
   0   2.0000     -88.152048     -2398.7392
   1   2.0000     -18.777868      -510.9718
   2   2.0000     -18.776214      -510.9268
   3   2.0000     -14.071432      -382.9031
   4   2.0000     -10.034221      -273.0450
   5   2.0000     -10.032505      -272.9983
   6   2.0000      -9.981074      -271.5988
   7   2.0000      -9.980602      -271.5860
   8   2.0000      -9.958735      -270.9910
   9   2.0000      -9.951649      -270.7981
  10   2.0000      -9.951057      -270.7820
  11   2.0000      -7.747152      -210.8107
  12   2.0000      -5.774380      -157.1289
  13   2.0000      -5.769569      -156.9980
  14   2.0000      -5.766834      -156.9235
  15   2.0000      -0.971230       -26.4285
  16   2.0000      -0.950147       -25.8548
  17   2.0000      -0.874657       -23.8006
  18   2.0000      -0.823055       -22.3965
  19   2.0000      -0.732302       -19.9269
  20   2.0000      -0.683573       -18.6010
  21   2.0000      -0.647237       -17.6122
  22   2.0000      -0.602583       -16.3971
  23   2.0000      -0.553170       -15.0525
  24   2.0000      -0.531981       -14.4759
  25   2.0000      -0.518041       -14.0966
  26   2.0000      -0.444229       -12.0881
  27   2.0000      -0.437901       -11.9159
  28   2.0000      -0.433936       -11.8080
  29   2.0000      -0.415614       -11.3094
  30   2.0000      -0.395548       -10.7634
  31   2.0000      -0.383447       -10.4341
  32   2.0000      -0.382520       -10.4089
  33   2.0000      -0.373123       -10.1532
  34   2.0000      -0.360078        -9.7982
  35   2.0000      -0.359044        -9.7701
  36   2.0000      -0.346642        -9.4326
  37   2.0000      -0.339284        -9.2324
  38   2.0000      -0.262134        -7.1330
  39   2.0000      -0.247798        -6.7429
  40   2.0000      -0.245556        -6.6819
  41   2.0000      -0.241783        -6.5792
  42   2.0000      -0.228439        -6.2161
  43   0.0000      -0.105783        -2.8785
  44   0.0000      -0.097181        -2.6444
  45   0.0000      -0.030840        -0.8392
  46   0.0000       0.020454         0.5566
  47   0.0000       0.024341         0.6623

MULLIKEN ATOMIC CHARGES
-----------------------
   0 C :   -0.135471
   1 C :    0.010800
   2 S :    0.109194
   3 C :   -0.133872
   4 C :    0.002113
   5 C :    0.178948
   6 C :    0.186396
   7 N :   -0.302272
   8 O :   -0.156486
   9 O :   -0.153616
  10 C :    0.069036
  11 H :    0.064759
  12 H :    0.059450
  13 H :    0.059756
  14 H :    0.070419
  15 H :    0.070846
Sum of atomic charges:   -0.0000000

LOEWDIN ATOMIC CHARGES
----------------------
   0 C :   -0.143876
   1 C :   -0.094252
   2 S :    0.439467
   3 C :   -0.143526
   4 C :   -0.094532
   5 C :    0.067788
   6 C :    0.069823
   7 N :   -0.027893
   8 O :   -0.151488
   9 O :   -0.150670
  10 C :    0.016183
  11 H :    0.041405
  12 H :    0.038924
  13 H :    0.039709
  14 H :    0.046440
  15 H :    0.046499

  Mayer bond orders larger than 0.100000
B(  0-C ,  1-C ) :   1.5044 B(  0-C ,  2-S ) :   1.1647 B(  0-C , 14-H ) :   0.9590
B(  1-C ,  4-C ) :   1.2862 B(  1-C ,  5-C ) :   0.9160 B(  2-S ,  3-C ) :   1.1675
B(  3-C ,  4-C ) :   1.5023 B(  3-C , 15-H ) :   0.9586 B(  4-C ,  6-C ) :   0.9199
B(  5-C ,  7-N ) :   1.0353 B(  5-C ,  8-O ) :   2.1712 B(  6-C ,  7-N ) :   1.0319
B(  6-C ,  9-O ) :   2.1584 B(  7-N , 10-C ) :   0.9629 B( 10-C , 11-H ) :   0.9512
B( 10-C , 12-H ) :   0.9671 B( 10-C , 13-H ) :   0.9647

Dispersion correction           -0.031437329
FINAL SINGLE POINT ENERGY      -872.785565781136

DIPOLE MOMENT
-------------
                                X             Y             Z
Electronic contribution:      0.23143       7.31875      -0.20221
Nuclear contribution   :     -0.19636      -6.59163       0.18156
                        -----------------------------------------
Total Dipole Moment    :      0.03507       0.72712      -0.02065
                        -----------------------------------------
Magnitude (a.u.)       :      0.72826
Magnitude (Debye)      :      1.85108

Rotational constants in cm-1:     0.061779     0.026003     0.018365
Rotational constants in MHz :  1852.086874   779.539651   550.568064

                             ****ORCA TERMINATED NORMALLY****
TOTAL RUN TIME: 0 days 0 hours 1 minutes 39 seconds 162 msec
