                         Program Version 4.2.0 -  RELEASE  -
|  1> ! RI BP86 def2-SVP def2/J D3BJ TIGHTSCF  Opt Grid3 FinalGrid5
|  2> %maxcore 3000
|  3> %geom
|  4> optimizehydrogens true
|  5> end
|  6>
|  7>
|  8> *xyz 0 1
|  9> C	-0.279233	1.194434	-0.064237
| 10> C	0.266717	-0.085862	-0.019444
| 11> S	1.055084	2.373110	-0.066466
| 12> C	2.315283	1.118013	-0.003679
| 13> C	1.691737	-0.128800	0.014037
| 14> C	-0.246950	-1.475722	0.008581
| 15> C	2.118941	-1.545302	0.064642
| 16> N	0.910163	-2.288874	0.057228
| 17> O	-1.394840	-1.903502	-0.003038
| 18> O	3.239615	-2.038960	0.107479
| 19> C	0.863862	-3.735197	0.097575
| 20> H	1.902940	-4.096008	0.211977
| 21> H	0.427362	-4.142504	-0.836869
| 22> H	0.243421	-4.078836	0.948761
| 23> H	-0.897263	1.410201	0.815038
| 24> H	-0.859708	1.357594	-0.979698
| 25> H	2.903776	1.296277	0.903827
| 26> H	2.946193	1.246303	-0.890901
| 27> **                         ****END OF INPUT****
 Total Charge           Charge          ....    0
 Multiplicity           Mult            ....    1
 Number of Electrons    NEL             ....   88
Dispersion correction           -0.033792318
FINAL SINGLE POINT ENERGY      -873.953137979575
Dispersion correction            ... done
Dispersion correction           -0.033750532
FINAL SINGLE POINT ENERGY      -873.955682988455
Dispersion correction            ... done
Dispersion correction           -0.033720496
FINAL SINGLE POINT ENERGY      -873.956765194050
Dispersion correction            ... done
Dispersion correction           -0.033717936
FINAL SINGLE POINT ENERGY      -873.956839443007
Dispersion correction            ... done
Dispersion correction           -0.033719115
FINAL SINGLE POINT ENERGY      -873.956844017656
Dispersion correction            ... done
                    ***********************HURRAY********************

CARTESIAN COORDINATES (ANGSTROEM)
---------------------------------
  C     -0.278777    1.201455   -0.065658
  C      0.266683   -0.079033   -0.020396
  S      1.055964    2.379652   -0.067090
  C      2.315670    1.124107   -0.003356
  C      1.691664   -0.122480    0.014044
  C     -0.247502   -1.468706    0.007399
  C      2.118325   -1.539132    0.065050
  N      0.909285   -2.282270    0.056887
  O     -1.395538   -1.896075   -0.004955
  O      3.238793   -2.033189    0.108678
  C      0.862438   -3.728573    0.097321
  H      1.902155   -4.090074    0.205037
  H      0.423727   -4.142272   -0.833545
  H      0.253402   -4.078783    0.954409
  H     -0.971900    1.389505    0.791955
  H     -0.933634    1.344479   -0.961142
  H      2.976755    1.271563    0.886773
  H      3.019591    1.226190   -0.866597

 Multiplicity           Mult            ....    1
 Number of Electrons    NEL             ....   88
 Basis Dimension        Dim             ....  193

ORBITAL ENERGIES
----------------

  NO   OCC          E(Eh)            E(eV)
   0   2.0000     -88.090423     -2397.0623
   1   2.0000     -18.789731      -511.2946
   2   2.0000     -18.788057      -511.2490
   3   2.0000     -14.067273      -382.7900
   4   2.0000     -10.040307      -273.2106
   5   2.0000     -10.038628      -273.1649
   6   2.0000      -9.961781      -271.0738
   7   2.0000      -9.961737      -271.0726
   8   2.0000      -9.959073      -271.0002
   9   2.0000      -9.958842      -270.9939
  10   2.0000      -9.958738      -270.9910
  11   2.0000      -7.689755      -209.2489
  12   2.0000      -5.718865      -155.6182
  13   2.0000      -5.713740      -155.4788
  14   2.0000      -5.704743      -155.2340
  15   2.0000      -0.978489       -26.6260
  16   2.0000      -0.960174       -26.1277
  17   2.0000      -0.877788       -23.8858
  18   2.0000      -0.824850       -22.4453
  19   2.0000      -0.725568       -19.7437
  20   2.0000      -0.710245       -19.3267
  21   2.0000      -0.640334       -17.4244
  22   2.0000      -0.608565       -16.5599
  23   2.0000      -0.559715       -15.2306
  24   2.0000      -0.535128       -14.5616
  25   2.0000      -0.522438       -14.2163
  26   2.0000      -0.458096       -12.4654
  27   2.0000      -0.436627       -11.8812
  28   2.0000      -0.432832       -11.7780
  29   2.0000      -0.425085       -11.5672
  30   2.0000      -0.415149       -11.2968
  31   2.0000      -0.402245       -10.9456
  32   2.0000      -0.391614       -10.6564
  33   2.0000      -0.370867       -10.0918
  34   2.0000      -0.369877       -10.0649
  35   2.0000      -0.368193       -10.0190
  36   2.0000      -0.362593        -9.8667
  37   2.0000      -0.360027        -9.7968
  38   2.0000      -0.314945        -8.5701
  39   2.0000      -0.266892        -7.2625
  40   2.0000      -0.253531        -6.8989
  41   2.0000      -0.236872        -6.4456
  42   2.0000      -0.236267        -6.4292
  43   2.0000      -0.198239        -5.3944
  44   0.0000      -0.140590        -3.8257
  45   0.0000      -0.015841        -0.4311
  46   0.0000      -0.002297        -0.0625
  47   0.0000       0.004349         0.1183
  48   0.0000       0.026798         0.7292

MULLIKEN ATOMIC CHARGES
-----------------------
   0 C :    0.024359
   1 C :   -0.146571
   2 S :   -0.103947
   3 C :    0.024818
   4 C :   -0.155656
   5 C :    0.182439
   6 C :    0.189503
   7 N :   -0.306641
   8 O :   -0.143728
   9 O :   -0.140886
  10 C :    0.070168
  11 H :    0.062321
  12 H :    0.055507
  13 H :    0.056071
  14 H :    0.083194
  15 H :    0.083183
  16 H :    0.082875
  17 H :    0.082994
Sum of atomic charges:    0.0000000

LOEWDIN ATOMIC CHARGES
----------------------
   0 C :   -0.144654
   1 C :   -0.054700
   2 S :    0.251438
   3 C :   -0.144756
   4 C :   -0.056756
   5 C :    0.069616
   6 C :    0.071827
   7 N :   -0.045573
   8 O :   -0.136520
   9 O :   -0.135724
  10 C :    0.014650
  11 H :    0.040757
  12 H :    0.035742
  13 H :    0.036861
  14 H :    0.049652
  15 H :    0.049682
  16 H :    0.049218
  17 H :    0.049240

  Mayer bond orders larger than 0.100000
B(  0-C ,  1-C ) :   1.1310 B(  0-C ,  2-S ) :   0.9961 B(  0-C , 14-H ) :   0.8809
B(  0-C , 15-H ) :   0.8807 B(  1-C ,  4-C ) :   1.7267 B(  1-C ,  5-C ) :   0.9141
B(  2-S ,  3-C ) :   0.9972 B(  3-C ,  4-C ) :   1.1287 B(  3-C , 16-H ) :   0.8814
B(  3-C , 17-H ) :   0.8814 B(  4-C ,  6-C ) :   0.9180 B(  5-C ,  7-N ) :   1.0379
B(  5-C ,  8-O ) :   2.1657 B(  6-C ,  7-N ) :   1.0341 B(  6-C ,  9-O ) :   2.1532
B(  7-N , 10-C ) :   0.9664 B( 10-C , 11-H ) :   0.9521 B( 10-C , 12-H ) :   0.9686
B( 10-C , 13-H ) :   0.9665

Dispersion correction           -0.033719504
FINAL SINGLE POINT ENERGY      -873.956844368871

DIPOLE MOMENT
-------------
                                X             Y             Z
Electronic contribution:      0.11437       3.76966      -0.11027
Nuclear contribution   :     -0.09725      -3.63149       0.10690
                        -----------------------------------------
Total Dipole Moment    :      0.01712       0.13817      -0.00337
                        -----------------------------------------
Magnitude (a.u.)       :      0.13926
Magnitude (Debye)      :      0.35398

Rotational constants in cm-1:     0.060085     0.025664     0.018166
Rotational constants in MHz :  1801.316641   769.381214   544.609717

                             ****ORCA TERMINATED NORMALLY****
TOTAL RUN TIME: 0 days 0 hours 2 minutes 53 seconds 946 msec
