                         Program Version 4.2.0 -  RELEASE  -
|  1> ! RI BP86 def2-SVP def2/J D3BJ TIGHTSCF  Opt Grid3 FinalGrid5
|  2> %maxcore 3000
|  3> %geom
|  4> optimizehydrogens true
|  5> end
|  6>
|  7>
|  8> *xyz 0 1
|  9> C	-0.185571	-0.552994	0.370393
| 10> C	-2.221554	-1.822505	0.259681
| 11> C	-2.816970	-0.545090	0.365510
| 12> S	-1.488536	0.673044	0.575939
| 13> C	-0.790294	-1.826734	0.275572
| 14> H	-2.777273	-2.771618	0.126600
| 15> H	-0.236355	-2.777723	0.168963
| 16> H	0.848900	-0.256252	0.279759
| 17> H	-3.850811	-0.235294	0.325509
| 18> **                         ****END OF INPUT****
 Total Charge           Charge          ....    0
 Multiplicity           Mult            ....    1
 Number of Electrons    NEL             ....   44
Dispersion correction           -0.013834949
FINAL SINGLE POINT ENERGY      -552.819574128414
Dispersion correction            ... done
Dispersion correction           -0.013826952
FINAL SINGLE POINT ENERGY      -552.820880735326
Dispersion correction            ... done
Dispersion correction           -0.013826699
FINAL SINGLE POINT ENERGY      -552.821065594830
Dispersion correction            ... done
FINAL SINGLE POINT ENERGY      -552.821134940294
Dispersion correction            ... done
Dispersion correction           -0.013827839
FINAL SINGLE POINT ENERGY      -552.821149584323
Dispersion correction            ... done
Dispersion correction           -0.013827880
FINAL SINGLE POINT ENERGY      -552.821152195623
Dispersion correction            ... done
                    ***********************HURRAY********************

CARTESIAN COORDINATES (ANGSTROEM)
---------------------------------
  C     -0.185955   -0.557616    0.326934
  C     -2.221435   -1.830182    0.246060
  C     -2.817334   -0.552037    0.339647
  S     -1.488669    0.669816    0.525639
  C     -0.790097   -1.832978    0.252378
  H     -2.817800   -2.749754    0.152751
  H     -0.198322   -2.755582    0.158602
  H      0.868686   -0.263661    0.366436
  H     -3.867536   -0.243172    0.379480

 Multiplicity           Mult            ....    1
 Number of Electrons    NEL             ....   44
 Basis Dimension        Dim             ....   94

ORBITAL ENERGIES
----------------

  NO   OCC          E(Eh)            E(eV)
   0   2.0000     -88.118933     -2397.8381
   1   2.0000      -9.950724      -270.7730
   2   2.0000      -9.950054      -270.7547
   3   2.0000      -9.928597      -270.1708
   4   2.0000      -9.928114      -270.1577
   5   2.0000      -7.713296      -209.8894
   6   2.0000      -5.740517      -156.2074
   7   2.0000      -5.736195      -156.0898
   8   2.0000      -5.732746      -155.9959
   9   2.0000      -0.780117       -21.2281
  10   2.0000      -0.656541       -17.8654
  11   2.0000      -0.643368       -17.5069
  12   2.0000      -0.511372       -13.9151
  13   2.0000      -0.490891       -13.3578
  14   2.0000      -0.456921       -12.4335
  15   2.0000      -0.373933       -10.1752
  16   2.0000      -0.359081        -9.7711
  17   2.0000      -0.341652        -9.2968
  18   2.0000      -0.330102        -8.9825
  19   2.0000      -0.300294        -8.1714
  20   2.0000      -0.226104        -6.1526
  21   2.0000      -0.212122        -5.7721
  22   0.0000      -0.060827        -1.6552
  23   0.0000      -0.001760        -0.0479
  24   0.0000       0.016412         0.4466
  25   0.0000       0.039308         1.0696
  26   0.0000       0.054002         1.4695

MULLIKEN ATOMIC CHARGES
-----------------------
   0 C :   -0.125016
   1 C :    0.010631
   2 C :   -0.127041
   3 S :    0.062808
   4 C :    0.007736
   5 H :    0.022538
   6 H :    0.021898
   7 H :    0.063252
   8 H :    0.063194
Sum of atomic charges:   -0.0000000

LOEWDIN ATOMIC CHARGES
----------------------
   0 C :   -0.183658
   1 C :   -0.075179
   2 C :   -0.180412
   3 S :    0.372792
   4 C :   -0.076187
   5 H :    0.036756
   6 H :    0.036221
   7 H :    0.034958
   8 H :    0.034710

  Mayer bond orders larger than 0.100000
B(  0-C ,  2-C ) :   0.1242 B(  0-C ,  3-S ) :   1.1668 B(  0-C ,  4-C ) :   1.5316
B(  0-C ,  7-H ) :   0.9635 B(  1-C ,  2-C ) :   1.5314 B(  1-C ,  4-C ) :   1.3108
B(  1-C ,  5-H ) :   0.9780 B(  2-C ,  3-S ) :   1.1627 B(  2-C ,  8-H ) :   0.9642
B(  4-C ,  6-H ) :   0.9780

Dispersion correction           -0.013827847
FINAL SINGLE POINT ENERGY      -552.821152287136

DIPOLE MOMENT
-------------
                                X             Y             Z
Electronic contribution:      0.02113       3.58596       0.43521
Nuclear contribution   :     -0.02191      -3.80488      -0.43564
                        -----------------------------------------
Total Dipole Moment    :     -0.00078      -0.21892      -0.00043
                        -----------------------------------------
Magnitude (a.u.)       :      0.21892
Magnitude (Debye)      :      0.55645

Rotational constants in cm-1:     0.245357     0.171763     0.101105
Rotational constants in MHz :  7355.610139  5149.313413  3031.037175

                             ****ORCA TERMINATED NORMALLY****
TOTAL RUN TIME: 0 days 0 hours 1 minutes 44 seconds 371 msec
