                         Program Version 4.2.0 -  RELEASE  -
|  1> ! RI BP86 def2-SVP def2/J D3BJ TIGHTSCF  Opt Grid3 FinalGrid5
|  2> %maxcore 3000
|  3> %geom
|  4> optimizehydrogens true
|  5> end
|  6>
|  7>
|  8> *xyz 0 1
|  9> C	-0.174964	-0.455802	0.000573
| 10> S	1.092746	0.777123	0.001520
| 11> C	2.418250	-0.398295	0.001387
| 12> C	0.444598	-1.714031	-0.000021
| 13> C	1.853134	-1.682416	0.000447
| 14> H	-0.133698	-2.638365	-0.000628
| 15> H	2.470752	-2.580611	0.000270
| 16> H	-1.195154	-0.101384	0.000378
| 17> H	3.421899	0.000565	0.001530
| 18> **                         ****END OF INPUT****
 Total Charge           Charge          ....    0
 Multiplicity           Mult            ....    1
 Number of Electrons    NEL             ....   44
Dispersion correction           -0.013866572
FINAL SINGLE POINT ENERGY      -552.824032647721
Dispersion correction            ... done
Dispersion correction           -0.013846860
FINAL SINGLE POINT ENERGY      -552.824948661858
Dispersion correction            ... done
Dispersion correction           -0.013841216
FINAL SINGLE POINT ENERGY      -552.825331023972
Dispersion correction            ... done
Dispersion correction           -0.013842058
FINAL SINGLE POINT ENERGY      -552.825518486082
Dispersion correction            ... done
Dispersion correction           -0.013844443
FINAL SINGLE POINT ENERGY      -552.825534159162
Dispersion correction            ... done
                    ***********************HURRAY********************

CARTESIAN COORDINATES (ANGSTROEM)
---------------------------------
  C     -0.175366   -0.436124    0.000573
  S      1.092554    0.796586    0.001393
  C      2.417858   -0.379058    0.001287
  C      0.443982   -1.694458    0.000038
  C      1.852524   -1.663083    0.000451
  H     -0.131240   -2.632154   -0.000578
  H      2.468389   -2.574741    0.000172
  H     -1.234578   -0.157172    0.000396
  H      3.463440   -0.053012    0.001724

 Multiplicity           Mult            ....    1
 Number of Electrons    NEL             ....   44
 Basis Dimension        Dim             ....   94

ORBITAL ENERGIES
----------------

  NO   OCC          E(Eh)            E(eV)
   0   2.0000     -88.118018     -2397.8132
   1   2.0000      -9.945609      -270.6338
   2   2.0000      -9.945429      -270.6289
   3   2.0000      -9.923429      -270.0302
   4   2.0000      -9.923248      -270.0253
   5   2.0000      -7.713406      -209.8924
   6   2.0000      -5.740423      -156.2049
   7   2.0000      -5.735932      -156.0827
   8   2.0000      -5.733128      -156.0063
   9   2.0000      -0.791305       -21.5325
  10   2.0000      -0.660748       -17.9799
  11   2.0000      -0.645907       -17.5760
  12   2.0000      -0.510060       -13.8794
  13   2.0000      -0.492222       -13.3941
  14   2.0000      -0.459891       -12.5143
  15   2.0000      -0.374940       -10.2026
  16   2.0000      -0.359270        -9.7762
  17   2.0000      -0.342377        -9.3165
  18   2.0000      -0.336285        -9.1508
  19   2.0000      -0.300415        -8.1747
  20   2.0000      -0.227677        -6.1954
  21   2.0000      -0.212726        -5.7886
  22   0.0000      -0.055737        -1.5167
  23   0.0000       0.010756         0.2927
  24   0.0000       0.019926         0.5422
  25   0.0000       0.043851         1.1933
  26   0.0000       0.059174         1.6102

MULLIKEN ATOMIC CHARGES
-----------------------
   0 C :   -0.124286
   1 S :    0.074071
   2 C :   -0.124247
   3 C :    0.010057
   4 C :    0.009178
   5 H :    0.017759
   6 H :    0.018070
   7 H :    0.059710
   8 H :    0.059687
Sum of atomic charges:   -0.0000000

LOEWDIN ATOMIC CHARGES
----------------------
   0 C :   -0.194430
   1 S :    0.402557
   2 C :   -0.193774
   3 C :   -0.078089
   4 C :   -0.077886
   5 H :    0.036088
   6 H :    0.036074
   7 H :    0.034729
   8 H :    0.034731

  Mayer bond orders larger than 0.100000
B(  0-C ,  1-S ) :   1.1803 B(  0-C ,  2-C ) :   0.1230 B(  0-C ,  3-C ) :   1.5114
B(  0-C ,  7-H ) :   0.9653 B(  1-S ,  2-C ) :   1.1788 B(  2-C ,  4-C ) :   1.5118
B(  2-C ,  8-H ) :   0.9655 B(  3-C ,  4-C ) :   1.3322 B(  3-C ,  5-H ) :   0.9811
B(  4-C ,  6-H ) :   0.9808

Dispersion correction           -0.013845237
FINAL SINGLE POINT ENERGY      -552.825535318547

DIPOLE MOMENT
-------------
                                X             Y             Z
Electronic contribution:     -0.08135       3.58514       0.00160
Nuclear contribution   :      0.08523      -3.77568      -0.00173
                        -----------------------------------------
Total Dipole Moment    :      0.00388      -0.19055      -0.00013
                        -----------------------------------------
Magnitude (a.u.)       :      0.19059
Magnitude (Debye)      :      0.48443

Rotational constants in cm-1:     0.252121     0.177367     0.104119
Rotational constants in MHz :  7558.393742  5317.334198  3121.416187

                             ****ORCA TERMINATED NORMALLY****
TOTAL RUN TIME: 0 days 0 hours 1 minutes 17 seconds 288 msec
