                         Program Version 4.2.0 -  RELEASE  -
|  1> ! RI BP86 def2-SVP def2/J D3BJ TIGHTSCF  Opt Grid3 FinalGrid5
|  2> %maxcore 3000
|  3> %geom
|  4> optimizehydrogens true
|  5> end
|  6>
|  7>
|  8> *xyz 0 1
|  9> C	-4.014986	0.955248	-0.001240
| 10> C	-3.895312	-0.470858	-0.001971
| 11> C	-2.759306	1.663061	-0.000857
| 12> C	-2.712305	-1.181917	-0.001586
| 13> H	-4.791985	-1.107714	-0.002752
| 14> C	-1.523140	0.919400	0.000010
| 15> C	-1.454274	-0.515072	-0.000266
| 16> C	-0.265678	1.585159	0.001396
| 17> C	-0.218518	-1.256116	0.000584
| 18> C	0.920181	0.876602	0.002167
| 19> C	1.035646	-0.547505	0.001606
| 20> H	1.817906	1.512895	0.003192
| 21> C	-2.655103	3.155459	-0.001969
| 22> C	-0.154635	3.062541	0.002010
| 23> N	-1.368140	3.747101	0.000132
| 24> C	-2.830588	-2.660887	-0.002372
| 25> C	-0.329382	-2.747291	0.000617
| 26> N	-1.611282	-3.340982	-0.001154
| 27> O	-3.624578	3.910983	-0.004870
| 28> O	0.916907	3.664558	0.003663
| 29> O	-3.910425	-3.248356	-0.003799
| 30> O	0.626012	-3.520725	0.002081
| 31> C	-1.271278	5.210352	-0.000201
| 32> H	-2.293332	5.619712	-0.001780
| 33> H	-0.710210	5.545738	-0.893430
| 34> H	-0.712670	5.546253	0.894368
| 35> C	-1.636993	-4.806488	-0.001398
| 36> H	-2.695537	-5.114795	-0.002850
| 37> H	-1.114540	-5.194701	0.893451
| 38> H	-1.112168	-5.194435	-0.894974
| 39> H	-5.037090	1.304109	-0.000625
| 40> H	2.055836	-0.901923	0.001801
| 41> **                         ****END OF INPUT****
 Total Charge           Charge          ....    0
 Multiplicity           Mult            ....    1
 Number of Electrons    NEL             ....  152
Dispersion correction           -0.074859079
FINAL SINGLE POINT ENERGY     -1025.575924824630
Dispersion correction            ... done
Dispersion correction           -0.074851181
FINAL SINGLE POINT ENERGY     -1025.579521250606
Dispersion correction            ... done
Dispersion correction           -0.074876868
FINAL SINGLE POINT ENERGY     -1025.582672698337
Dispersion correction            ... done
Dispersion correction           -0.074890009
FINAL SINGLE POINT ENERGY     -1025.582809107609
Dispersion correction            ... done
Dispersion correction           -0.074893063
FINAL SINGLE POINT ENERGY     -1025.582815177658
Dispersion correction            ... done
                    ***********************HURRAY********************

CARTESIAN COORDINATES (ANGSTROEM)
---------------------------------
  C     -4.017652    0.945929   -0.001080
  C     -3.892827   -0.479735   -0.001825
  C     -2.764537    1.658274   -0.000760
  C     -2.707259   -1.186516   -0.001506
  H     -4.809970   -1.090625   -0.002624
  C     -1.525693    0.919083    0.000038
  C     -1.451645   -0.515130   -0.000249
  C     -0.270644    1.589381    0.001361
  C     -0.213220   -1.251705    0.000531
  C      0.917767    0.885112    0.002065
  C      1.038376   -0.538568    0.001491
  H      1.833988    1.497355    0.003088
  C     -2.665726    3.151039   -0.001869
  C     -0.164939    3.067154    0.001977
  N     -1.380909    3.747326    0.000167
  C     -2.820198   -2.665903   -0.002294
  C     -0.318696   -2.743271    0.000562
  N     -1.598443   -3.341589   -0.001144
  O     -3.637924    3.903055   -0.004715
  O      0.904422    3.673038    0.003576
  O     -3.897906   -3.257270   -0.003667
  O      0.639486   -3.513249    0.001972
  C     -1.289334    5.210917   -0.000164
  H     -2.313847    5.614706   -0.001486
  H     -0.730650    5.548810   -0.893910
  H     -0.732622    5.549249    0.894634
  C     -1.618860   -4.807178   -0.001394
  H     -2.675971   -5.120210   -0.002974
  H     -1.094067   -5.193031    0.893117
  H     -1.091464   -5.192736   -0.894498
  H     -4.977682    1.476302   -0.001491
  H      1.997678   -1.070609    0.002056

 Multiplicity           Mult            ....    1
 Number of Electrons    NEL             ....  152
 Basis Dimension        Dim             ....  358

ORBITAL ENERGIES
----------------

  NO   OCC          E(Eh)            E(eV)
   0   2.0000     -18.781349      -511.0665
   1   2.0000     -18.779977      -511.0292
   2   2.0000     -18.779795      -511.0242
   3   2.0000     -18.778451      -510.9876
   4   2.0000     -14.085314      -383.2809
   5   2.0000     -14.085125      -383.2757
   6   2.0000     -10.044423      -273.3226
   7   2.0000     -10.041778      -273.2507
   8   2.0000     -10.038773      -273.1689
   9   2.0000     -10.036091      -273.0959
  10   2.0000      -9.977756      -271.5085
  11   2.0000      -9.976787      -271.4822
  12   2.0000      -9.974408      -271.4174
  13   2.0000      -9.974303      -271.4146
  14   2.0000      -9.972780      -271.3731
  15   2.0000      -9.972143      -271.3558
  16   2.0000      -9.964305      -271.1425
  17   2.0000      -9.963537      -271.1216
  18   2.0000      -9.958903      -270.9955
  19   2.0000      -9.958600      -270.9873
  20   2.0000      -9.956222      -270.9226
  21   2.0000      -9.955880      -270.9133
  22   2.0000      -0.981619       -26.7112
  23   2.0000      -0.981342       -26.7037
  24   2.0000      -0.960183       -26.1279
  25   2.0000      -0.960086       -26.1253
  26   2.0000      -0.868873       -23.6432
  27   2.0000      -0.867361       -23.6021
  28   2.0000      -0.835188       -22.7266
  29   2.0000      -0.782351       -21.2889
  30   2.0000      -0.762987       -20.7619
  31   2.0000      -0.708090       -19.2681
  32   2.0000      -0.706800       -19.2330
  33   2.0000      -0.680879       -18.5277
  34   2.0000      -0.652107       -17.7447
  35   2.0000      -0.644027       -17.5249
  36   2.0000      -0.609755       -16.5923
  37   2.0000      -0.592401       -16.1201
  38   2.0000      -0.591502       -16.0956
  39   2.0000      -0.582678       -15.8555
  40   2.0000      -0.538057       -14.6413
  41   2.0000      -0.514069       -13.9885
  42   2.0000      -0.506580       -13.7847
  43   2.0000      -0.486141       -13.2286
  44   2.0000      -0.469833       -12.7848
  45   2.0000      -0.453045       -12.3280
  46   2.0000      -0.448366       -12.2007
  47   2.0000      -0.445393       -12.1198
  48   2.0000      -0.437844       -11.9143
  49   2.0000      -0.434078       -11.8119
  50   2.0000      -0.417750       -11.3676
  51   2.0000      -0.409611       -11.1461
  52   2.0000      -0.407356       -11.0847
  53   2.0000      -0.398832       -10.8528
  54   2.0000      -0.393216       -10.7000
  55   2.0000      -0.390811       -10.6345
  56   2.0000      -0.389350       -10.5948
  57   2.0000      -0.381512       -10.3815
  58   2.0000      -0.375874       -10.2281
  59   2.0000      -0.369221       -10.0470
  60   2.0000      -0.369055       -10.0425
  61   2.0000      -0.364880        -9.9289
  62   2.0000      -0.355871        -9.6837
  63   2.0000      -0.351897        -9.5756
  64   2.0000      -0.351082        -9.5534
  65   2.0000      -0.329671        -8.9708
  66   2.0000      -0.321213        -8.7407
  67   2.0000      -0.293280        -7.9805
  68   2.0000      -0.270977        -7.3737
  69   2.0000      -0.259352        -7.0573
  70   2.0000      -0.255582        -6.9547
  71   2.0000      -0.254000        -6.9117
  72   2.0000      -0.253592        -6.9006
  73   2.0000      -0.243140        -6.6162
  74   2.0000      -0.237581        -6.4649
  75   2.0000      -0.232572        -6.3286
  76   0.0000      -0.158532        -4.3139
  77   0.0000      -0.101498        -2.7619
  78   0.0000      -0.089459        -2.4343
  79   0.0000      -0.079671        -2.1680
  80   0.0000      -0.026709        -0.7268

MULLIKEN ATOMIC CHARGES
-----------------------
   0 C :    0.002867
   1 C :   -0.028477
   2 C :   -0.036357
   3 C :   -0.066510
   4 H :    0.033629
   5 C :    0.132997
   6 C :    0.129027
   7 C :   -0.062745
   8 C :   -0.029615
   9 C :   -0.027922
  10 C :    0.000804
  11 H :    0.032387
  12 C :    0.137735
  13 C :    0.132164
  14 N :   -0.251743
  15 C :    0.146037
  16 C :    0.127153
  17 N :   -0.252301
  18 O :   -0.174489
  19 O :   -0.178740
  20 O :   -0.175114
  21 O :   -0.178574
  22 C :    0.071309
  23 H :    0.071373
  24 H :    0.059801
  25 H :    0.059808
  26 C :    0.072752
  27 H :    0.068564
  28 H :    0.060053
  29 H :    0.060050
  30 H :    0.032601
  31 H :    0.031477
Sum of atomic charges:   -0.0000000

LOEWDIN ATOMIC CHARGES
----------------------
   0 C :    0.030714
   1 C :    0.018092
   2 C :   -0.039510
   3 C :   -0.047253
   4 H :    0.047236
   5 C :   -0.001049
   6 C :   -0.000940
   7 C :   -0.047610
   8 C :   -0.040510
   9 C :    0.017655
  10 C :    0.029855
  11 H :    0.047240
  12 C :    0.070855
  13 C :    0.060454
  14 N :   -0.011240
  15 C :    0.063425
  16 C :    0.067780
  17 N :   -0.010295
  18 O :   -0.155515
  19 O :   -0.159856
  20 O :   -0.159453
  21 O :   -0.155729
  22 C :    0.020538
  23 H :    0.037136
  24 H :    0.039617
  25 H :    0.039618
  26 C :    0.020756
  27 H :    0.036990
  28 H :    0.039267
  29 H :    0.039266
  30 H :    0.051352
  31 H :    0.051113

  Mayer bond orders larger than 0.100000
B(  0-C ,  1-C ) :   1.2274 B(  0-C ,  2-C ) :   1.3772 B(  0-C , 30-H ) :   0.9864
B(  1-C ,  3-C ) :   1.4747 B(  1-C ,  4-H ) :   0.9534 B(  2-C ,  5-C ) :   1.2330
B(  2-C , 12-C ) :   0.9512 B(  3-C ,  6-C ) :   1.2196 B(  3-C , 15-C ) :   0.9218
B(  5-C ,  6-C ) :   1.2387 B(  5-C ,  7-C ) :   1.2198 B(  6-C ,  8-C ) :   1.2321
B(  7-C ,  9-C ) :   1.4699 B(  7-C , 13-C ) :   0.9229 B(  8-C , 10-C ) :   1.3754
B(  8-C , 16-C ) :   0.9519 B(  9-C , 10-C ) :   1.2270 B(  9-C , 11-H ) :   0.9547
B( 10-C , 31-H ) :   0.9867 B( 12-C , 14-N ) :   1.0492 B( 12-C , 18-O ) :   2.1002
B( 13-C , 14-N ) :   1.0884 B( 13-C , 19-O ) :   2.0882 B( 14-N , 22-C ) :   0.9477
B( 15-C , 17-N ) :   1.0834 B( 15-C , 20-O ) :   2.0850 B( 16-C , 17-N ) :   1.0539
B( 16-C , 21-O ) :   2.0996 B( 17-N , 26-C ) :   0.9502 B( 22-C , 23-H ) :   0.9435
B( 22-C , 24-H ) :   0.9652 B( 22-C , 25-H ) :   0.9652 B( 26-C , 27-H ) :   0.9428
B( 26-C , 28-H ) :   0.9653 B( 26-C , 29-H ) :   0.9653

Dispersion correction           -0.074893970
FINAL SINGLE POINT ENERGY     -1025.582816193117

DIPOLE MOMENT
-------------
                                X             Y             Z
Electronic contribution:     -0.25660       0.01030       0.00136
Nuclear contribution   :      0.26337      -0.00293      -0.00065
                        -----------------------------------------
Total Dipole Moment    :      0.00677       0.00737       0.00071
                        -----------------------------------------
Magnitude (a.u.)       :      0.01003
Magnitude (Debye)      :      0.02550

Rotational constants in cm-1:     0.020388     0.006731     0.005070
Rotational constants in MHz :   611.215233   201.798813   152.004318

                             ****ORCA TERMINATED NORMALLY****
TOTAL RUN TIME: 0 days 0 hours 7 minutes 38 seconds 560 msec
