                         Program Version 4.2.0 -  RELEASE  -
|  1> ! RI BP86 def2-SVP def2/J D3BJ TIGHTSCF  Opt Grid3 FinalGrid5
|  2> %maxcore 3000
|  3> %geom
|  4> Constraints
|  5> {D 1 0 68 74 0.0 C}
|  6> {D 2 0 68 69 0.0 C}
|  7> {D 8 10 30 33 0.0 C}
|  8> {D 9 10 30 31 0.0 C}
|  9> {D 34 32 37 41 0.0 C}
| 10> {D 31 32 37 38 0.0 C}
| 11> end
| 12> end
| 13>
| 14> *xyz 0 1
| 15> C	-4.583317	1.596476	-0.000010
| 16> C	-4.436407	0.191476	-0.000000
| 17> C	-3.335617	2.293136	-0.000030
| 18> C	-3.206857	-0.503024	-0.000000
| 19> H	-5.317217	-0.449274	-0.000000
| 20> C	-2.066207	1.570676	-0.000010
| 21> C	-1.976827	0.148846	-0.000000
| 22> C	-0.841287	2.225336	-0.000010
| 23> C	-0.697657	-0.566244	0.000030
| 24> C	0.386393	1.539426	-0.000030
| 25> C	0.547393	0.139006	0.000020
| 26> H	1.258183	2.190576	-0.000080
| 27> C	-3.209897	3.795776	-0.000130
| 28> C	-0.755437	3.693566	0.000020
| 29> N	-1.946787	4.377306	0.000060
| 30> C	-3.284857	-1.974644	-0.000020
| 31> C	-0.816297	-2.067484	0.000090
| 32> N	-2.085657	-2.652794	-0.000030
| 33> O	-4.183257	4.528516	-0.000470
| 34> O	0.339753	4.248546	-0.000010
| 35> O	-4.382687	-2.523834	-0.000030
| 36> O	0.165983	-2.794184	0.000300
| 37> C	-1.838147	5.830066	0.000020
| 38> H	-2.806007	6.336056	0.000040
| 39> H	-1.277847	6.141356	-0.888060
| 40> H	-1.277787	6.141396	0.888040
| 41> C	-2.138937	-4.109464	-0.000010
| 42> H	-3.161487	-4.497244	-0.000040
| 43> H	-1.622707	-4.484974	0.889390
| 44> H	-1.622647	-4.484984	-0.889380
| 45> C	2.007093	-0.352224	0.000030
| 46> S	3.299303	0.819846	0.000410
| 47> C	4.656953	-0.263934	0.000030
| 48> C	2.645343	-1.575404	-0.000160
| 49> C	4.094013	-1.525754	-0.000180
| 50> H	2.175453	-2.542994	-0.000350
| 51> H	4.619153	-2.463164	-0.000390
| 52> C	6.086393	0.319846	0.000010
| 53> C	6.171503	1.743426	-0.000030
| 54> C	7.364743	2.483796	-0.000020
| 55> H	5.269843	2.354346	-0.000060
| 56> C	7.363823	-0.344604	0.000020
| 57> C	8.584973	1.835886	-0.000010
| 58> C	8.601883	0.414066	-0.000000
| 59> C	9.886163	-0.172224	-0.000010
| 60> C	9.778133	2.585466	-0.000010
| 61> C	11.075123	0.579606	-0.000010
| 62> C	11.021713	1.959536	-0.000010
| 63> H	12.047823	0.087436	-0.000010
| 64> H	11.944623	2.537776	-0.000000
| 65> C	7.290883	3.971256	-0.000020
| 66> C	9.746673	4.065976	-0.000010
| 67> N	8.494803	4.664166	-0.000010
| 68> C	7.561303	-1.839294	0.000110
| 69> C	10.030673	-1.630944	-0.000040
| 70> N	8.859303	-2.361754	-0.000060
| 71> O	6.190833	4.515176	-0.000020
| 72> O	10.802033	4.693976	-0.000010
| 73> O	6.613733	-2.608834	0.000400
| 74> O	11.151673	-2.132304	-0.000030
| 75> C	8.472143	6.116816	-0.000010
| 76> H	7.457533	6.521416	-0.000010
| 77> H	9.002513	6.479486	-0.887050
| 78> H	9.002513	6.479476	0.887030
| 79> C	9.034983	-3.807324	-0.000020
| 80> H	8.091523	-4.356684	-0.000040
| 81> H	9.610793	-4.092774	0.887230
| 82> H	9.610833	-4.092804	-0.887230
| 83> C	-6.028157	2.125926	-0.000000
| 84> C	-6.626147	3.383986	0.000090
| 85> C	-8.057667	3.403576	0.000020
| 86> H	-6.131377	4.335376	0.000190
| 87> C	-8.582927	2.144216	-0.000030
| 88> H	-8.653917	4.308396	0.000040
| 89> S	-7.364877	0.968626	-0.000070
| 90> H	-9.627467	1.863896	-0.000050
| 91> **                         ****END OF INPUT****
 Total Charge           Charge          ....    0
 Multiplicity           Mult            ....    1
 Number of Electrons    NEL             ....  386
Dispersion correction           -0.208395745
FINAL SINGLE POINT ENERGY     -3153.243227190143
Dispersion correction            ... done
Dispersion correction           -0.209918169
FINAL SINGLE POINT ENERGY     -3153.277632373143
Dispersion correction            ... done
Dispersion correction           -0.210420345
FINAL SINGLE POINT ENERGY     -3153.280946150878
Dispersion correction            ... done
FINAL SINGLE POINT ENERGY     -3153.286013740656
FINAL SINGLE POINT ENERGY     -3153.286751976061
FINAL SINGLE POINT ENERGY     -3153.287058851476
FINAL SINGLE POINT ENERGY     -3153.287593638365
FINAL SINGLE POINT ENERGY     -3153.287657472138
FINAL SINGLE POINT ENERGY     -3153.287688273224
Dispersion correction            ... done
Dispersion correction           -0.210289678
FINAL SINGLE POINT ENERGY     -3153.287679354918
Dispersion correction            ... done
Dispersion correction           -0.210297211
FINAL SINGLE POINT ENERGY     -3153.287695575161
Dispersion correction            ... done
                    ***********************HURRAY********************

CARTESIAN COORDINATES (ANGSTROEM)
---------------------------------
  C     -4.424349    1.650401   -0.001579
  C     -4.304675    0.224295   -0.002310
  C     -3.168669    2.358214   -0.001196
  C     -3.121668   -0.486764   -0.001925
  H     -5.201348   -0.412561   -0.003091
  C     -1.932503    1.614553   -0.000329
  C     -1.863637    0.180081   -0.000605
  C     -0.675041    2.280312    0.001057
  C     -0.627881   -0.560963    0.000245
  C      0.510818    1.571755    0.001828
  C      0.626283    0.147648    0.001267
  H      1.408543    2.208048    0.002853
  C     -3.064466    3.850612   -0.002308
  C     -0.563998    3.757694    0.001671
  N     -1.777503    4.442254   -0.000207
  C     -3.239951   -1.965734   -0.002711
  C     -0.738745   -2.052138    0.000278
  N     -2.020645   -2.645829   -0.001493
  O     -4.033941    4.606136   -0.005209
  O      0.507544    4.359711    0.003324
  O     -4.319788   -2.553203   -0.004138
  O      0.216649   -2.825572    0.001742
  C     -1.680641    5.905505   -0.000540
  H     -2.702695    6.314865   -0.002119
  H     -1.119573    6.240891   -0.893769
  H     -1.122033    6.241406    0.894029
  C     -2.046356   -4.111335   -0.001737
  H     -3.104900   -4.419642   -0.003189
  H     -1.523903   -4.499548    0.893112
  H     -1.521531   -4.499282   -0.895313
  C      2.022636   -0.337451    0.001534
  S      3.290346    0.895474    0.002481
  C      4.615850   -0.279944    0.002348
  C      2.642198   -1.595680    0.000940
  C      4.050734   -1.564065    0.001408
  H      2.063902   -2.520014    0.000333
  H      4.668352   -2.462260    0.001231
  C      5.990190    0.266233    0.002544
  C      6.025073    1.704560    0.002818
  C      7.174246    2.465396    0.001626
  H      5.091356    2.285734    0.003826
  C      7.271841   -0.397564    0.001774
  C      8.439439    1.827003   -0.000149
  C      8.480620    0.394877   -0.000055
  C      9.780164   -0.199005   -0.001994
  C      9.625090    2.606941   -0.001916
  C     10.942792    0.581747   -0.003894
  C     10.876193    1.985060   -0.003814
  H     11.904716    0.048769   -0.005399
  H     11.778761    2.612707   -0.005208
  C      7.051008    3.953856    0.001918
  C      9.550107    4.095575   -0.001784
  N      8.263118    4.671391    0.000176
  C      7.446230   -1.883953    0.003455
  C      9.948886   -1.667895   -0.002115
  N      8.762426   -2.406838    0.000769
  O      5.963128    4.521686    0.003515
  O     10.547265    4.811092   -0.003277
  O      6.516179   -2.687691    0.007298
  O     11.042613   -2.229243   -0.004191
  C      8.206547    6.135253    0.000326
  H      7.143284    6.427316    0.001951
  H      8.721348    6.532732   -0.895274
  H      8.724066    6.532647    0.894396
  C      8.929599   -3.864116    0.001593
  H      7.928568   -4.322401    0.003941
  H      9.506555   -4.172135    0.894566
  H      9.503081   -4.173486   -0.893143
  C     -5.821758    2.127360   -0.000739
  C     -6.450966    3.380791    0.000679
  C     -7.869040    3.328111    0.001722
  H     -5.873370    4.305463    0.000838
  C     -8.360244    2.033408    0.001046
  H     -8.508873    4.221114    0.002861
  S     -7.096115    0.870511   -0.000778
  H     -9.405406    1.698268    0.001487

 Multiplicity           Mult            ....    1
 Number of Electrons    NEL             ....  386
 Basis Dimension        Dim             ....  874

ORBITAL ENERGIES
----------------

  NO   OCC          E(Eh)            E(eV)
   0   2.0000     -88.134302     -2398.2563
   1   2.0000     -88.134099     -2398.2508
   2   2.0000     -18.781777      -511.0781
   3   2.0000     -18.781637      -511.0743
   4   2.0000     -18.780992      -511.0568
   5   2.0000     -18.780896      -511.0542
   6   2.0000     -18.778969      -511.0017
   7   2.0000     -18.778290      -510.9832
   8   2.0000     -18.774858      -510.8899
   9   2.0000     -18.773300      -510.8475
  10   2.0000     -14.085177      -383.2772
  11   2.0000     -14.085063      -383.2740
  12   2.0000     -14.083445      -383.2300
  13   2.0000     -14.082228      -383.1969
  14   2.0000     -10.044991      -273.3381
  15   2.0000     -10.044655      -273.3290
  16   2.0000     -10.044134      -273.3148
  17   2.0000     -10.040741      -273.2224
  18   2.0000     -10.038004      -273.1480
  19   2.0000     -10.037088      -273.1231
  20   2.0000     -10.032748      -273.0049
  21   2.0000     -10.031411      -272.9686
  22   2.0000      -9.987790      -271.7816
  23   2.0000      -9.984281      -271.6861
  24   2.0000      -9.983578      -271.6670
  25   2.0000      -9.976408      -271.4718
  26   2.0000      -9.976268      -271.4681
  27   2.0000      -9.975496      -271.4470
  28   2.0000      -9.974564      -271.4217
  29   2.0000      -9.973019      -271.3796
  30   2.0000      -9.971587      -271.3407
  31   2.0000      -9.971438      -271.3366
  32   2.0000      -9.970964      -271.3237
  33   2.0000      -9.970710      -271.3168
  34   2.0000      -9.965773      -271.1825
  35   2.0000      -9.962270      -271.0872
  36   2.0000      -9.961351      -271.0621
  37   2.0000      -9.960936      -271.0509
  38   2.0000      -9.959960      -271.0243
  39   2.0000      -9.959459      -271.0107
  40   2.0000      -9.958785      -270.9923
  41   2.0000      -9.958161      -270.9753
  42   2.0000      -9.956455      -270.9289
  43   2.0000      -9.956271      -270.9239
  44   2.0000      -9.954868      -270.8857
  45   2.0000      -9.954826      -270.8846
  46   2.0000      -9.954441      -270.8741
  47   2.0000      -9.953718      -270.8544
  48   2.0000      -9.953705      -270.8541
  49   2.0000      -9.953184      -270.8399
  50   2.0000      -9.936346      -270.3817
  51   2.0000      -9.930528      -270.2234
  52   2.0000      -9.929083      -270.1841
  53   2.0000      -9.928675      -270.1730
  54   2.0000      -7.729991      -210.3438
  55   2.0000      -7.729365      -210.3267
  56   2.0000      -5.757001      -156.6560
  57   2.0000      -5.756498      -156.6423
  58   2.0000      -5.752448      -156.5321
  59   2.0000      -5.752132      -156.5235
  60   2.0000      -5.749583      -156.4541
  61   2.0000      -5.748637      -156.4284
  62   2.0000      -0.983354       -26.7584
  63   2.0000      -0.981692       -26.7132
  64   2.0000      -0.980496       -26.6806
  65   2.0000      -0.979379       -26.6503
  66   2.0000      -0.961411       -26.1613
  67   2.0000      -0.959882       -26.1197
  68   2.0000      -0.959589       -26.1118
  69   2.0000      -0.958083       -26.0708
  70   2.0000      -0.868874       -23.6433
  71   2.0000      -0.868671       -23.6377
  72   2.0000      -0.866754       -23.5856
  73   2.0000      -0.865063       -23.5396
  74   2.0000      -0.839247       -22.8371
  75   2.0000      -0.835900       -22.7460
  76   2.0000      -0.824337       -22.4314
  77   2.0000      -0.817514       -22.2457
  78   2.0000      -0.789670       -21.4880
  79   2.0000      -0.780404       -21.2359
  80   2.0000      -0.761504       -20.7216
  81   2.0000      -0.760667       -20.6988
  82   2.0000      -0.736367       -20.0376
  83   2.0000      -0.718797       -19.5595
  84   2.0000      -0.706709       -19.2305
  85   2.0000      -0.704952       -19.1827
  86   2.0000      -0.687332       -18.7033
  87   2.0000      -0.679866       -18.5001
  88   2.0000      -0.679736       -18.4966
  89   2.0000      -0.678951       -18.4752
  90   2.0000      -0.675346       -18.3771
  91   2.0000      -0.658377       -17.9153
  92   2.0000      -0.650626       -17.7044
  93   2.0000      -0.649286       -17.6680
  94   2.0000      -0.639911       -17.4129
  95   2.0000      -0.632492       -17.2110
  96   2.0000      -0.611175       -16.6309
  97   2.0000      -0.606799       -16.5118
  98   2.0000      -0.599041       -16.3007
  99   2.0000      -0.593309       -16.1448
 100   2.0000      -0.591883       -16.1060
 101   2.0000      -0.588031       -16.0011
 102   2.0000      -0.585932       -15.9440
 103   2.0000      -0.582659       -15.8550
 104   2.0000      -0.545598       -14.8465
 105   2.0000      -0.542426       -14.7601
 106   2.0000      -0.535324       -14.5669
 107   2.0000      -0.523968       -14.2579
 108   2.0000      -0.520105       -14.1528
 109   2.0000      -0.512562       -13.9475
 110   2.0000      -0.509879       -13.8745
 111   2.0000      -0.502615       -13.6768
 112   2.0000      -0.497603       -13.5405
 113   2.0000      -0.488520       -13.2933
 114   2.0000      -0.487915       -13.2768
 115   2.0000      -0.472951       -12.8696
 116   2.0000      -0.469682       -12.7807
 117   2.0000      -0.465415       -12.6646
 118   2.0000      -0.457929       -12.4609
 119   2.0000      -0.454946       -12.3797
 120   2.0000      -0.452342       -12.3088
 121   2.0000      -0.450704       -12.2643
 122   2.0000      -0.447349       -12.1730
 123   2.0000      -0.445722       -12.1287
 124   2.0000      -0.441298       -12.0083
 125   2.0000      -0.437763       -11.9121
 126   2.0000      -0.434921       -11.8348
 127   2.0000      -0.433125       -11.7859
 128   2.0000      -0.426414       -11.6033
 129   2.0000      -0.425822       -11.5872
 130   2.0000      -0.422363       -11.4931
 131   2.0000      -0.417337       -11.3563
 132   2.0000      -0.412253       -11.2180
 133   2.0000      -0.406739       -11.0679
 134   2.0000      -0.403071       -10.9681
 135   2.0000      -0.400964       -10.9108
 136   2.0000      -0.399134       -10.8610
 137   2.0000      -0.398588       -10.8461
 138   2.0000      -0.397947       -10.8287
 139   2.0000      -0.394021       -10.7218
 140   2.0000      -0.392062       -10.6685
 141   2.0000      -0.388817       -10.5802
 142   2.0000      -0.388687       -10.5767
 143   2.0000      -0.387426       -10.5424
 144   2.0000      -0.382382       -10.4051
 145   2.0000      -0.380374       -10.3505
 146   2.0000      -0.376535       -10.2460
 147   2.0000      -0.375759       -10.2249
 148   2.0000      -0.371122       -10.0987
 149   2.0000      -0.369194       -10.0463
 150   2.0000      -0.367961       -10.0127
 151   2.0000      -0.367591       -10.0027
 152   2.0000      -0.367188        -9.9917
 153   2.0000      -0.365430        -9.9439
 154   2.0000      -0.364362        -9.9148
 155   2.0000      -0.363398        -9.8886
 156   2.0000      -0.362569        -9.8660
 157   2.0000      -0.361197        -9.8287
 158   2.0000      -0.354190        -9.6380
 159   2.0000      -0.352024        -9.5791
 160   2.0000      -0.351009        -9.5514
 161   2.0000      -0.350565        -9.5393
 162   2.0000      -0.348473        -9.4824
 163   2.0000      -0.347658        -9.4603
 164   2.0000      -0.340412        -9.2631
 165   2.0000      -0.335625        -9.1328
 166   2.0000      -0.331264        -9.0142
 167   2.0000      -0.328696        -8.9443
 168   2.0000      -0.317378        -8.6363
 169   2.0000      -0.310629        -8.4527
 170   2.0000      -0.298400        -8.1199
 171   2.0000      -0.294949        -8.0260
 172   2.0000      -0.291915        -7.9434
 173   2.0000      -0.289152        -7.8682
 174   2.0000      -0.271893        -7.3986
 175   2.0000      -0.258226        -7.0267
 176   2.0000      -0.257495        -7.0068
 177   2.0000      -0.257431        -7.0051
 178   2.0000      -0.255845        -6.9619
 179   2.0000      -0.254536        -6.9263
 180   2.0000      -0.253284        -6.8922
 181   2.0000      -0.251893        -6.8544
 182   2.0000      -0.250602        -6.8192
 183   2.0000      -0.246828        -6.7165
 184   2.0000      -0.244102        -6.6424
 185   2.0000      -0.242137        -6.5889
 186   2.0000      -0.239580        -6.5193
 187   2.0000      -0.237120        -6.4524
 188   2.0000      -0.235984        -6.4215
 189   2.0000      -0.231324        -6.2946
 190   2.0000      -0.230263        -6.2658
 191   2.0000      -0.228635        -6.2215
 192   2.0000      -0.209826        -5.7097
 193   0.0000      -0.158071        -4.3013
 194   0.0000      -0.148765        -4.0481
 195   0.0000      -0.115574        -3.1449
 196   0.0000      -0.105212        -2.8630
 197   0.0000      -0.096140        -2.6161

MULLIKEN ATOMIC CHARGES
-----------------------
   0 C :    0.157286
   1 C :   -0.137147
   2 C :   -0.055435
   3 C :   -0.074123
   4 H :    0.043819
   5 C :    0.140060
   6 C :    0.131286
   7 C :   -0.067836
   8 C :   -0.042190
   9 C :   -0.125499
  10 C :    0.133273
  11 H :    0.047946
  12 C :    0.144251
  13 C :    0.129453
  14 N :   -0.250578
  15 C :    0.144103
  16 C :    0.129649
  17 N :   -0.251185
  18 O :   -0.188186
  19 O :   -0.177141
  20 O :   -0.177005
  21 O :   -0.188501
  22 C :    0.074358
  23 H :    0.067577
  24 H :    0.060441
  25 H :    0.060441
  26 C :    0.076873
  27 H :    0.069201
  28 H :    0.058534
  29 H :    0.058516
  30 C :   -0.057616
  31 S :    0.032212
  32 C :   -0.059825
  33 C :   -0.002931
  34 C :   -0.001492
  35 H :    0.034760
  36 H :    0.035947
  37 C :    0.137854
  38 C :   -0.130295
  39 C :   -0.048631
  40 H :    0.048940
  41 C :   -0.057485
  42 C :    0.140610
  43 C :    0.143278
  44 C :   -0.077651
  45 C :   -0.036878
  46 C :   -0.004575
  47 C :   -0.030928
  48 H :    0.027291
  49 H :    0.025844
  50 C :    0.148480
  51 C :    0.130193
  52 N :   -0.258844
  53 C :    0.146335
  54 C :    0.127008
  55 N :   -0.253557
  56 O :   -0.165131
  57 O :   -0.173299
  58 O :   -0.187449
  59 O :   -0.182134
  60 C :    0.071455
  61 H :    0.070775
  62 H :    0.060611
  63 H :    0.060617
  64 C :    0.073486
  65 H :    0.068492
  66 H :    0.059241
  67 H :    0.059246
  68 C :   -0.150726
  69 C :    0.019158
  70 C :    0.010638
  71 H :    0.041367
  72 C :   -0.057431
  73 H :    0.019326
  74 S :    0.089628
  75 H :    0.061846
Sum of atomic charges:   -0.0000000

LOEWDIN ATOMIC CHARGES
----------------------
   0 C :    0.005804
   1 C :    0.014759
   2 C :   -0.055049
   3 C :   -0.051980
   4 H :    0.027015
   5 C :    0.001813
   6 C :   -0.001418
   7 C :   -0.051764
   8 C :   -0.049393
   9 C :    0.015354
  10 C :   -0.002700
  11 H :    0.029218
  12 C :    0.083442
  13 C :    0.061203
  14 N :   -0.008918
  15 C :    0.064818
  16 C :    0.080822
  17 N :   -0.007823
  18 O :   -0.149211
  19 O :   -0.160417
  20 O :   -0.162738
  21 O :   -0.147056
  22 C :    0.020438
  23 H :    0.035302
  24 H :    0.039987
  25 H :    0.039986
  26 C :    0.020543
  27 H :    0.037436
  28 H :    0.038758
  29 H :    0.038752
  30 C :   -0.144907
  31 S :    0.460285
  32 C :   -0.147435
  33 C :   -0.038403
  34 C :   -0.035680
  35 H :    0.035949
  36 H :    0.035925
  37 C :    0.004555
  38 C :    0.016704
  39 C :   -0.047426
  40 H :    0.029430
  41 C :   -0.049061
  42 C :   -0.004575
  43 C :    0.002403
  44 C :   -0.048759
  45 C :   -0.047310
  46 C :    0.021042
  47 C :    0.017582
  48 H :    0.048043
  49 H :    0.047893
  50 C :    0.071663
  51 C :    0.069266
  52 N :   -0.014282
  53 C :    0.081602
  54 C :    0.059303
  55 N :   -0.010980
  56 O :   -0.151517
  57 O :   -0.154787
  58 O :   -0.148710
  59 O :   -0.163854
  60 C :    0.020656
  61 H :    0.038545
  62 H :    0.039682
  63 H :    0.039684
  64 C :    0.020044
  65 H :    0.035351
  66 H :    0.039316
  67 H :    0.039317
  68 C :   -0.160263
  69 C :   -0.035321
  70 C :   -0.068403
  71 H :    0.035792
  72 C :   -0.174895
  73 H :    0.040285
  74 S :    0.451429
  75 H :    0.037837

  Mayer bond orders larger than 0.100000
B(  0-C ,  1-C ) :   1.1629 B(  0-C ,  2-C ) :   1.3181 B(  0-C , 68-C ) :   1.1631
B(  1-C ,  3-C ) :   1.5246 B(  1-C ,  4-H ) :   0.9200 B(  2-C ,  5-C ) :   1.2483
B(  2-C , 12-C ) :   0.9651 B(  3-C ,  6-C ) :   1.1803 B(  3-C , 15-C ) :   0.9153
B(  5-C ,  6-C ) :   1.2190 B(  5-C ,  7-C ) :   1.1836 B(  6-C ,  8-C ) :   1.2515
B(  7-C ,  9-C ) :   1.5082 B(  7-C , 13-C ) :   0.9150 B(  8-C , 10-C ) :   1.3189
B(  8-C , 16-C ) :   0.9609 B(  9-C , 10-C ) :   1.1741 B(  9-C , 11-H ) :   0.9210
B( 10-C , 30-C ) :   1.1470 B( 12-C , 14-N ) :   1.0706 B( 12-C , 18-O ) :   1.9855
B( 13-C , 14-N ) :   1.0882 B( 13-C , 19-O ) :   2.0745 B( 14-N , 22-C ) :   0.9477
B( 15-C , 17-N ) :   1.0836 B( 15-C , 20-O ) :   2.0683 B( 16-C , 17-N ) :   1.0766
B( 16-C , 21-O ) :   1.9868 B( 17-N , 26-C ) :   0.9494 B( 22-C , 23-H ) :   0.9437
B( 22-C , 24-H ) :   0.9649 B( 22-C , 25-H ) :   0.9649 B( 26-C , 27-H ) :   0.9424
B( 26-C , 28-H ) :   0.9653 B( 26-C , 29-H ) :   0.9653 B( 30-C , 31-S ) :   1.1012
B( 30-C , 33-C ) :   1.4124 B( 31-S , 32-C ) :   1.0941 B( 32-C , 34-C ) :   1.4121
B( 32-C , 37-C ) :   1.1558 B( 33-C , 34-C ) :   1.2445 B( 33-C , 35-H ) :   0.9568
B( 34-C , 36-H ) :   0.9559 B( 37-C , 38-C ) :   1.1580 B( 37-C , 41-C ) :   1.3359
B( 38-C , 39-C ) :   1.5147 B( 38-C , 40-H ) :   0.9249 B( 39-C , 42-C ) :   1.1902
B( 39-C , 50-C ) :   0.9127 B( 41-C , 43-C ) :   1.2298 B( 41-C , 53-C ) :   0.9642
B( 42-C , 43-C ) :   1.2306 B( 42-C , 45-C ) :   1.2495 B( 43-C , 44-C ) :   1.2201
B( 44-C , 46-C ) :   1.4245 B( 44-C , 54-C ) :   0.9415 B( 45-C , 47-C ) :   1.3944
B( 45-C , 51-C ) :   0.9360 B( 46-C , 47-C ) :   1.2324 B( 46-C , 48-H ) :   0.9705
B( 47-C , 49-H ) :   0.9783 B( 50-C , 52-N ) :   1.0722 B( 50-C , 56-O ) :   2.0882
B( 51-C , 52-N ) :   1.0613 B( 51-C , 57-O ) :   2.1066 B( 52-N , 60-C ) :   0.9462
B( 53-C , 55-N ) :   1.0751 B( 53-C , 58-O ) :   1.9816 B( 54-C , 55-N ) :   1.0759
B( 54-C , 59-O ) :   2.0899 B( 55-N , 64-C ) :   0.9489 B( 60-C , 61-H ) :   0.9445
B( 60-C , 62-H ) :   0.9656 B( 60-C , 63-H ) :   0.9656 B( 64-C , 65-H ) :   0.9436
B( 64-C , 66-H ) :   0.9650 B( 64-C , 67-H ) :   0.9649 B( 68-C , 69-C ) :   1.4537
B( 68-C , 74-S ) :   1.1045 B( 69-C , 70-C ) :   1.2687 B( 69-C , 71-H ) :   0.9519
B( 70-C , 72-C ) :   1.4779 B( 70-C , 73-H ) :   0.9813 B( 72-C , 74-S ) :   1.1926
B( 72-C , 75-H ) :   0.9598

Dispersion correction           -0.210297497
FINAL SINGLE POINT ENERGY     -3153.287695943302

DIPOLE MOMENT
-------------
                                X             Y             Z
Electronic contribution:     -2.50502      -2.23537       0.00203
Nuclear contribution   :      1.25476       2.36062      -0.00198
                        -----------------------------------------
Total Dipole Moment    :     -1.25026       0.12525       0.00005
                        -----------------------------------------
Magnitude (a.u.)       :      1.25651
Magnitude (Debye)      :      3.19381

Rotational constants in cm-1:     0.003131     0.000656     0.000543
Rotational constants in MHz :    93.853000    19.671383    16.269503

                             ****ORCA TERMINATED NORMALLY****
TOTAL RUN TIME: 0 days 1 hours 22 minutes 17 seconds 791 msec
