                         Program Version 4.2.0 -  RELEASE  -
|  1> ! RI BP86 def2-SVP def2/J D3BJ TIGHTSCF  Opt Grid3 FinalGrid5
|  2> %maxcore 3000
|  3> %geom
|  4> optimizehydrogens true
|  5> end
|  6>
|  7>
|  8> *xyz 0 1
|  9> C	-1.991911	1.464439	0.018867
| 10> C	-0.698245	0.947392	-0.075057
| 11> C	-0.366065	-0.450410	0.064164
| 12> C	-1.438365	-1.370985	0.269644
| 13> C	-2.733367	-0.841793	0.375229
| 14> C	-3.045765	0.551856	0.267610
| 15> S	0.722059	1.950989	-0.325913
| 16> C	1.773161	0.528674	-0.212600
| 17> C	1.053761	-0.643536	-0.010820
| 18> H	1.559329	-1.609290	0.098097
| 19> S	-4.171845	-1.806895	0.643944
| 20> C	-5.193593	-0.351880	0.622751
| 21> C	-4.447610	0.801891	0.410734
| 22> H	-4.885049	1.804361	0.340193
| 23> O	-2.213656	2.810274	-0.124053
| 24> C	-2.116630	3.552839	1.111702
| 25> C	-2.257475	5.049511	0.830590
| 26> H	-1.132492	3.325154	1.576875
| 27> H	-2.908097	3.207779	1.818502
| 28> C	-1.634517	5.866530	1.984823
| 29> C	-0.109465	5.755816	2.099566
| 30> H	-2.112663	5.568997	2.945660
| 31> H	-1.912644	6.931784	1.835220
| 32> H	0.224396	4.734841	2.376207
| 33> H	0.282762	6.445032	2.874431
| 34> H	0.387312	6.014053	1.141100
| 35> C	-3.718429	5.471759	0.572321
| 36> H	-1.662228	5.251476	-0.090103
| 37> C	-4.386766	4.906054	-0.685716
| 38> H	-3.760293	6.582259	0.535986
| 39> H	-4.327087	5.186002	1.459615
| 40> C	-5.828058	5.393600	-0.869224
| 41> H	-4.370558	3.796912	-0.655431
| 42> H	-3.779695	5.173458	-1.580075
| 43> C	-6.534189	4.764103	-2.073157
| 44> H	-5.833561	6.503391	-0.964463
| 45> H	-6.407507	5.170278	0.051930
| 46> H	-6.001149	4.992022	-3.020040
| 47> H	-7.577149	5.127044	-2.177845
| 48> H	-6.577229	3.658622	-1.977710
| 49> O	-1.337833	-2.720843	0.421176
| 50> C	-0.263138	-3.448751	-0.184124
| 51> C	-0.712252	-4.866174	-0.545807
| 52> H	0.589661	-3.506162	0.533685
| 53> H	0.081557	-2.908522	-1.088828
| 54> C	-1.424029	-5.585360	0.626217
| 55> C	-2.941589	-5.376161	0.679223
| 56> H	-0.963258	-5.264810	1.587238
| 57> H	-1.214799	-6.674464	0.543940
| 58> H	-3.204221	-4.305710	0.779025
| 59> H	-3.392673	-5.917197	1.536079
| 60> H	-3.426224	-5.751765	-0.246451
| 61> C	0.510758	-5.676094	-1.031284
| 62> H	-1.430801	-4.785233	-1.393735
| 63> C	1.330649	-5.050600	-2.168116
| 64> H	0.148686	-6.676604	-1.354516
| 65> H	1.178709	-5.869208	-0.159847
| 66> C	2.418452	-5.982464	-2.719335
| 67> H	1.816217	-4.110682	-1.822588
| 68> H	0.647978	-4.749835	-2.996118
| 69> C	3.287219	-5.328801	-3.798043
| 70> H	1.940099	-6.902899	-3.122944
| 71> H	3.061468	-6.327331	-1.878699
| 72> H	2.676518	-5.003389	-4.666474
| 73> H	4.064169	-6.023334	-4.177253
| 74> H	3.807156	-4.430597	-3.404504
| 75> H	-6.260025	-0.459480	0.755210
| 76> H	2.843348	0.639994	-0.305912
| 77> **                         ****END OF INPUT****
 Total Charge           Charge          ....    0
 Multiplicity           Mult            ....    1
 Number of Electrons    NEL             ....  242
Dispersion correction           -0.133449659
FINAL SINGLE POINT ENERGY     -1959.597848421087
Dispersion correction            ... done
Dispersion correction           -0.133435058
FINAL SINGLE POINT ENERGY     -1959.598283765069
Dispersion correction            ... done
Dispersion correction           -0.133436503
FINAL SINGLE POINT ENERGY     -1959.598314227075
Dispersion correction            ... done
Dispersion correction           -0.133441286
FINAL SINGLE POINT ENERGY     -1959.598346725582
Dispersion correction            ... done
Dispersion correction           -0.133442278
FINAL SINGLE POINT ENERGY     -1959.598350867861
Dispersion correction            ... done
                    ***********************HURRAY********************

CARTESIAN COORDINATES (ANGSTROEM)
---------------------------------
  C     -1.992229    1.463875    0.018445
  C     -0.698530    0.946913   -0.075484
  C     -0.366209   -0.450817    0.064128
  C     -1.438401   -1.371422    0.270031
  C     -2.733436   -0.842311    0.375617
  C     -3.045971    0.551277    0.267606
  S      0.721654    1.950557   -0.326832
  C      1.772896    0.528370   -0.213213
  C      1.053625   -0.643841   -0.010977
  H      1.559806   -1.609601    0.094030
  S     -4.171795   -1.807456    0.644815
  C     -5.193674   -0.352538    0.623302
  C     -4.447820    0.801233    0.410832
  H     -4.892020    1.803967    0.350362
  O     -2.214111    2.809646   -0.124863
  C     -2.116992    3.552603    1.110649
  C     -2.258005    5.049175    0.829091
  H     -1.134339    3.325446    1.579400
  H     -2.909904    3.209598    1.816869
  C     -1.634971    5.866607    1.982991
  C     -0.109895    5.756063    2.097573
  H     -2.112291    5.563148    2.943029
  H     -1.913201    6.932862    1.839581
  H      0.227772    4.716576    2.286957
  H      0.276084    6.381949    2.927529
  H      0.384816    6.094731    1.163233
  C     -3.719029    5.471215    0.570878
  H     -1.663154    5.249848   -0.092049
  C     -4.387477    4.905061   -0.686898
  H     -3.753000    6.583219    0.519802
  H     -4.325971    5.199662    1.466258
  C     -5.828835    5.392423   -0.870373
  H     -4.366775    3.795390   -0.657110
  H     -3.782261    5.177449   -1.580691
  C     -6.535065    4.762491   -2.074021
  H     -5.835940    6.501987   -0.965201
  H     -6.406810    5.171731    0.055895
  H     -6.000027    4.990199   -3.020091
  H     -7.576124    5.129886   -2.181630
  H     -6.575890    3.656640   -1.981268
  O     -1.337731   -2.721224    0.421968
  C     -0.263050   -3.449225   -0.183243
  C     -0.712085   -4.866800   -0.544429
  H      0.589749   -3.505779    0.534430
  H      0.081587   -2.907934   -1.087938
  C     -1.423649   -5.585685    0.627909
  C     -2.941220   -5.376603    0.681044
  H     -0.958805   -5.269594    1.588376
  H     -1.215220   -6.674907    0.541290
  H     -3.194213   -4.309481    0.816012
  H     -3.396240   -5.945493    1.517572
  H     -3.421874   -5.720213   -0.258976
  C      0.510934   -5.676763   -1.029812
  H     -1.429914   -4.784322   -1.392852
  C      1.330625   -5.051549   -2.166942
  H      0.148578   -6.677362   -1.353028
  H      1.179383   -5.869502   -0.158669
  C      2.418439   -5.983488   -2.718012
  H      1.814388   -4.110262   -1.822059
  H      0.648136   -4.751605   -2.995378
  C      3.287011   -5.330083   -3.797033
  H      1.940446   -6.903743   -3.122371
  H      3.061975   -6.326748   -1.876936
  H      2.674896   -5.000609   -4.663061
  H      4.060234   -6.026466   -4.180301
  H      3.809979   -4.432604   -3.404258
  H     -6.276767   -0.448333    0.764629
  H      2.859136    0.644491   -0.305366

 Multiplicity           Mult            ....    1
 Number of Electrons    NEL             ....  242
 Basis Dimension        Dim             ....  618

ORBITAL ENERGIES
----------------

  NO   OCC          E(Eh)            E(eV)
   0   2.0000     -88.115080     -2397.7332
   1   2.0000     -88.113619     -2397.6935
   2   2.0000     -18.816658      -512.0273
   3   2.0000     -18.798075      -511.5216
   4   2.0000      -9.983478      -271.6642
   5   2.0000      -9.972233      -271.3582
   6   2.0000      -9.967760      -271.2365
   7   2.0000      -9.961004      -271.0527
   8   2.0000      -9.946621      -270.6613
   9   2.0000      -9.945962      -270.6434
  10   2.0000      -9.943774      -270.5839
  11   2.0000      -9.940632      -270.4983
  12   2.0000      -9.934241      -270.3244
  13   2.0000      -9.928859      -270.1780
  14   2.0000      -9.926947      -270.1260
  15   2.0000      -9.924320      -270.0545
  16   2.0000      -9.923026      -270.0193
  17   2.0000      -9.918158      -269.8868
  18   2.0000      -9.917166      -269.8598
  19   2.0000      -9.916438      -269.8400
  20   2.0000      -9.915991      -269.8278
  21   2.0000      -9.915063      -269.8026
  22   2.0000      -9.911393      -269.7027
  23   2.0000      -9.909915      -269.6625
  24   2.0000      -9.907685      -269.6018
  25   2.0000      -9.907422      -269.5947
  26   2.0000      -9.905883      -269.5528
  27   2.0000      -9.901474      -269.4328
  28   2.0000      -9.900274      -269.4001
  29   2.0000      -9.897778      -269.3322
  30   2.0000      -7.710417      -209.8111
  31   2.0000      -7.708390      -209.7560
  32   2.0000      -5.737806      -156.1336
  33   2.0000      -5.735839      -156.0801
  34   2.0000      -5.733486      -156.0161
  35   2.0000      -5.731471      -155.9613
  36   2.0000      -5.729063      -155.8957
  37   2.0000      -5.727082      -155.8418
  38   2.0000      -0.975394       -26.5418
  39   2.0000      -0.958497       -26.0820
  40   2.0000      -0.811968       -22.0948
  41   2.0000      -0.792115       -21.5546
  42   2.0000      -0.750064       -20.4103
  43   2.0000      -0.742330       -20.1998
  44   2.0000      -0.723721       -19.6934
  45   2.0000      -0.711276       -19.3548
  46   2.0000      -0.703640       -19.1470
  47   2.0000      -0.694789       -18.9062
  48   2.0000      -0.673532       -18.3277
  49   2.0000      -0.661515       -18.0007
  50   2.0000      -0.658561       -17.9204
  51   2.0000      -0.648623       -17.6499
  52   2.0000      -0.637798       -17.3554
  53   2.0000      -0.634643       -17.2695
  54   2.0000      -0.608813       -16.5667
  55   2.0000      -0.592028       -16.1099
  56   2.0000      -0.576973       -15.7002
  57   2.0000      -0.553440       -15.0599
  58   2.0000      -0.545345       -14.8396
  59   2.0000      -0.542084       -14.7509
  60   2.0000      -0.525009       -14.2862
  61   2.0000      -0.520932       -14.1753
  62   2.0000      -0.515542       -14.0286
  63   2.0000      -0.509340       -13.8599
  64   2.0000      -0.506175       -13.7737
  65   2.0000      -0.502213       -13.6659
  66   2.0000      -0.491643       -13.3783
  67   2.0000      -0.479926       -13.0595
  68   2.0000      -0.474602       -12.9146
  69   2.0000      -0.457441       -12.4476
  70   2.0000      -0.441737       -12.0203
  71   2.0000      -0.432816       -11.7775
  72   2.0000      -0.422193       -11.4885
  73   2.0000      -0.410533       -11.1712
  74   2.0000      -0.409566       -11.1449
  75   2.0000      -0.405921       -11.0457
  76   2.0000      -0.403682       -10.9847
  77   2.0000      -0.392577       -10.6826
  78   2.0000      -0.389328       -10.5942
  79   2.0000      -0.384694       -10.4680
  80   2.0000      -0.382633       -10.4120
  81   2.0000      -0.382014       -10.3951
  82   2.0000      -0.378193       -10.2912
  83   2.0000      -0.370917       -10.0932
  84   2.0000      -0.369058       -10.0426
  85   2.0000      -0.365955        -9.9582
  86   2.0000      -0.358147        -9.7457
  87   2.0000      -0.356584        -9.7032
  88   2.0000      -0.355367        -9.6700
  89   2.0000      -0.347409        -9.4535
  90   2.0000      -0.341742        -9.2993
  91   2.0000      -0.340452        -9.2642
  92   2.0000      -0.338718        -9.2170
  93   2.0000      -0.335293        -9.1238
  94   2.0000      -0.331926        -9.0322
  95   2.0000      -0.329794        -8.9742
  96   2.0000      -0.326708        -8.8902
  97   2.0000      -0.321726        -8.7546
  98   2.0000      -0.318095        -8.6558
  99   2.0000      -0.314279        -8.5520
 100   2.0000      -0.311298        -8.4708
 101   2.0000      -0.306291        -8.3346
 102   2.0000      -0.305854        -8.3227
 103   2.0000      -0.298407        -8.1201
 104   2.0000      -0.297178        -8.0866
 105   2.0000      -0.293007        -7.9731
 106   2.0000      -0.291784        -7.9398
 107   2.0000      -0.286941        -7.8081
 108   2.0000      -0.282287        -7.6814
 109   2.0000      -0.281310        -7.6548
 110   2.0000      -0.277971        -7.5640
 111   2.0000      -0.275736        -7.5032
 112   2.0000      -0.272007        -7.4017
 113   2.0000      -0.270410        -7.3582
 114   2.0000      -0.269325        -7.3287
 115   2.0000      -0.256990        -6.9931
 116   2.0000      -0.238929        -6.5016
 117   2.0000      -0.230570        -6.2741
 118   2.0000      -0.223868        -6.0917
 119   2.0000      -0.206564        -5.6209
 120   2.0000      -0.167811        -4.5664
 121   0.0000      -0.072115        -1.9624
 122   0.0000      -0.031165        -0.8480
 123   0.0000      -0.024886        -0.6772
 124   0.0000      -0.005750        -0.1565
 125   0.0000       0.001361         0.0370

MULLIKEN ATOMIC CHARGES
-----------------------
   0 C :    0.064576
   1 C :   -0.148988
   2 C :    0.040797
   3 C :    0.133649
   4 C :   -0.133223
   5 C :    0.071787
   6 S :    0.105041
   7 C :   -0.084374
   8 C :   -0.032898
   9 H :   -0.006970
  10 S :    0.096313
  11 C :   -0.075391
  12 C :   -0.035966
  13 H :    0.005963
  14 O :   -0.301265
  15 C :    0.215450
  16 C :   -0.087032
  17 H :    0.009756
  18 H :    0.008188
  19 C :   -0.040209
  20 C :   -0.040360
  21 H :    0.016940
  22 H :    0.018671
  23 H :    0.034708
  24 H :    0.029719
  25 H :    0.030280
  26 C :   -0.000462
  27 H :    0.015730
  28 C :   -0.021876
  29 H :    0.004401
  30 H :    0.000240
  31 C :   -0.058006
  32 H :    0.024866
  33 H :    0.009756
  34 C :   -0.037389
  35 H :    0.014375
  36 H :    0.011202
  37 H :    0.026462
  38 H :    0.026390
  39 H :    0.026388
  40 O :   -0.279439
  41 C :    0.148905
  42 C :   -0.098582
  43 H :    0.029491
  44 H :    0.048610
  45 C :   -0.001154
  46 C :   -0.044181
  47 H :    0.016704
  48 H :    0.011359
  49 H :    0.046738
  50 H :    0.023448
  51 H :    0.022937
  52 C :   -0.016091
  53 H :    0.014376
  54 C :   -0.058952
  55 H :    0.018686
  56 H :    0.014505
  57 C :   -0.051882
  58 H :    0.021757
  59 H :    0.019112
  60 C :   -0.042908
  61 H :    0.020105
  62 H :    0.017039
  63 H :    0.028691
  64 H :    0.031037
  65 H :    0.026981
  66 H :    0.048763
  67 H :    0.046705
Sum of atomic charges:   -0.0000000

LOEWDIN ATOMIC CHARGES
----------------------
   0 C :   -0.001965
   1 C :   -0.173666
   2 C :   -0.082319
   3 C :    0.019997
   4 C :   -0.184121
   5 C :   -0.064156
   6 S :    0.395170
   7 C :   -0.178013
   8 C :   -0.075233
   9 H :    0.032798
  10 S :    0.410360
  11 C :   -0.170110
  12 C :   -0.066841
  13 H :    0.036246
  14 O :   -0.110590
  15 C :    0.083630
  16 C :   -0.048986
  17 H :    0.008356
  18 H :    0.012281
  19 C :   -0.042465
  20 C :   -0.074731
  21 H :    0.025177
  22 H :    0.028155
  23 H :    0.025118
  24 H :    0.031069
  25 H :    0.029055
  26 C :   -0.037997
  27 H :    0.029713
  28 C :   -0.049344
  29 H :    0.022939
  30 H :    0.020510
  31 C :   -0.051945
  32 H :    0.020931
  33 H :    0.026191
  34 C :   -0.074526
  35 H :    0.022785
  36 H :    0.022011
  37 H :    0.027171
  38 H :    0.027538
  39 H :    0.026551
  40 O :   -0.078070
  41 C :    0.076911
  42 C :   -0.047882
  43 H :    0.015607
  44 H :    0.022687
  45 C :   -0.041984
  46 C :   -0.076362
  47 H :    0.027474
  48 H :    0.024865
  49 H :    0.013967
  50 H :    0.027744
  51 H :    0.024976
  52 C :   -0.038118
  53 H :    0.028165
  54 C :   -0.051696
  55 H :    0.028176
  56 H :    0.023963
  57 C :   -0.049519
  58 H :    0.021726
  59 H :    0.025841
  60 C :   -0.074357
  61 H :    0.025540
  62 H :    0.025077
  63 H :    0.027753
  64 H :    0.029838
  65 H :    0.026686
  66 H :    0.032433
  67 H :    0.031813

  Mayer bond orders larger than 0.100000
B(  0-C ,  1-C ) :   1.4058 B(  0-C ,  5-C ) :   1.2687 B(  0-C , 14-O ) :   1.1783
B(  1-C ,  2-C ) :   1.2580 B(  1-C ,  6-S ) :   1.0657 B(  2-C ,  3-C ) :   1.2204
B(  2-C ,  8-C ) :   1.1964 B(  3-C ,  4-C ) :   1.3945 B(  3-C , 40-O ) :   1.1927
B(  4-C ,  5-C ) :   1.2820 B(  4-C , 10-S ) :   1.0609 B(  5-C , 12-C ) :   1.2111
B(  6-S ,  7-C ) :   1.0994 B(  7-C ,  8-C ) :   1.5766 B(  7-C , 67-H ) :   0.9562
B(  8-C ,  9-H ) :   0.9722 B( 10-S , 11-C ) :   1.1108 B( 11-C , 12-C ) :   1.5641
B( 11-C , 66-H ) :   0.9581 B( 12-C , 13-H ) :   0.9769 B( 14-O , 15-C ) :   0.9314
B( 15-C , 16-C ) :   1.0204 B( 15-C , 17-H ) :   0.9279 B( 15-C , 18-H ) :   0.9223
B( 16-C , 19-C ) :   1.0478 B( 16-C , 26-C ) :   1.0581 B( 16-C , 27-H ) :   0.9049
B( 19-C , 20-C ) :   1.1112 B( 19-C , 21-H ) :   0.9341 B( 19-C , 22-H ) :   0.9332
B( 20-C , 23-H ) :   0.9582 B( 20-C , 24-H ) :   0.9566 B( 20-C , 25-H ) :   0.9639
B( 26-C , 28-C ) :   1.0907 B( 26-C , 29-H ) :   0.9273 B( 26-C , 30-H ) :   0.9252
B( 28-C , 31-C ) :   1.0835 B( 28-C , 32-H ) :   0.9230 B( 28-C , 33-H ) :   0.9252
B( 31-C , 34-C ) :   1.1119 B( 31-C , 35-H ) :   0.9373 B( 31-C , 36-H ) :   0.9385
B( 34-C , 37-H ) :   0.9653 B( 34-C , 38-H ) :   0.9613 B( 34-C , 39-H ) :   0.9652
B( 40-O , 41-C ) :   0.9466 B( 41-C , 42-C ) :   1.0417 B( 41-C , 43-H ) :   0.9255
B( 41-C , 44-H ) :   0.9240 B( 42-C , 45-C ) :   1.0382 B( 42-C , 52-C ) :   1.0379
B( 42-C , 53-H ) :   0.9075 B( 45-C , 46-C ) :   1.1174 B( 45-C , 47-H ) :   0.9284
B( 45-C , 48-H ) :   0.9368 B( 46-C , 49-H ) :   0.9580 B( 46-C , 50-H ) :   0.9553
B( 46-C , 51-H ) :   0.9631 B( 52-C , 54-C ) :   1.0805 B( 52-C , 55-H ) :   0.9275
B( 52-C , 56-H ) :   0.9267 B( 54-C , 57-C ) :   1.0874 B( 54-C , 58-H ) :   0.9258
B( 54-C , 59-H ) :   0.9347 B( 57-C , 60-C ) :   1.1109 B( 57-C , 61-H ) :   0.9385
B( 57-C , 62-H ) :   0.9388 B( 60-C , 63-H ) :   0.9658 B( 60-C , 64-H ) :   0.9615
B( 60-C , 65-H ) :   0.9657

Dispersion correction           -0.133442776
FINAL SINGLE POINT ENERGY     -1959.598353640996

DIPOLE MOMENT
-------------
                                X             Y             Z
Electronic contribution:     -2.97294       1.22754       9.33875
Nuclear contribution   :      3.52180      -1.52773      -9.20512
                        -----------------------------------------
Total Dipole Moment    :      0.54886      -0.30019       0.13363
                        -----------------------------------------
Magnitude (a.u.)       :      0.63970
Magnitude (Debye)      :      1.62598

Rotational constants in cm-1:     0.006662     0.002073     0.001767
Rotational constants in MHz :   199.712942    62.137085    52.970954

                             ****ORCA TERMINATED NORMALLY****
TOTAL RUN TIME: 0 days 0 hours 19 minutes 15 seconds 263 msec
