                         Program Version 4.2.0 -  RELEASE  -
|  1> ! RI BP86 def2-SVP def2/J D3BJ TIGHTSCF  Opt Grid3 FinalGrid5
|  2> %maxcore 3000
|  3> %geom
|  4> optimizehydrogens true
|  5> end
|  6>
|  7>
|  8> *xyz 0 1
|  9> C	-3.990044	-0.906755	0.082454
| 10> C	-3.410679	0.352843	0.034639
| 11> S	-2.751869	-2.185690	0.114116
| 12> C	-1.983506	0.332351	0.028728
| 13> H	-3.753299	0.851094	-0.882626
| 14> C	-1.440821	-0.999668	0.084005
| 15> C	-0.055494	-1.223867	0.061925
| 16> C	-1.142225	1.479179	-0.046577
| 17> C	0.245409	1.255057	-0.072986
| 18> C	0.787322	-0.078618	-0.014771
| 19> O	-1.798288	2.672697	-0.065582
| 20> O	0.593371	-2.425488	0.079984
| 21> C	-0.008924	-3.534707	0.735968
| 22> H	0.782560	-4.301500	0.837325
| 23> H	-0.844730	-3.970271	0.145818
| 24> H	-0.382451	-3.259243	1.745919
| 25> C	-1.148860	3.839564	-0.555154
| 26> H	-1.935540	4.611584	-0.651981
| 27> H	-0.686484	3.664762	-1.550323
| 28> H	-0.374152	4.213371	0.149006
| 29> C	2.214077	-0.095603	-0.023116
| 30> S	1.558273	2.442855	-0.115878
| 31> C	2.787608	1.167481	-0.078832
| 32> H	-3.729146	0.925259	0.916647
| 33> H	2.535577	-0.668609	-0.903399
| 34> H	2.557751	-0.590513	0.895333
| 35> H	-4.587850	-1.148875	-0.804110
| 36> H	3.403487	1.240145	-0.983204
| 37> H	-4.609284	-0.981338	0.984102
| 38> H	3.389428	1.409613	0.805284
| 39> **                         ****END OF INPUT****
 Total Charge           Charge          ....    0
 Multiplicity           Mult            ....    1
 Number of Electrons    NEL             ....  134
Dispersion correction           -0.066147372
FINAL SINGLE POINT ENERGY     -1411.915181763864
Dispersion correction            ... done
Dispersion correction           -0.066066956
FINAL SINGLE POINT ENERGY     -1411.920749212720
Dispersion correction            ... done
Dispersion correction           -0.065995594
FINAL SINGLE POINT ENERGY     -1411.923513867185
Dispersion correction            ... done
FINAL SINGLE POINT ENERGY     -1411.923635564945
Dispersion correction            ... done
Dispersion correction           -0.065982434
FINAL SINGLE POINT ENERGY     -1411.923653383226
Dispersion correction            ... done
Dispersion correction           -0.065980642
FINAL SINGLE POINT ENERGY     -1411.923659352854
Dispersion correction            ... done
                    ***********************HURRAY********************

CARTESIAN COORDINATES (ANGSTROEM)
---------------------------------
  C     -3.987202   -0.916575    0.080227
  C     -3.411473    0.344654    0.031494
  S     -2.745328   -2.191847    0.114618
  C     -1.984241    0.328326    0.027012
  H     -3.760994    0.936400   -0.850721
  C     -1.437722   -1.002035    0.084397
  C     -0.051724   -1.222209    0.063945
  C     -1.146240    1.477519   -0.048820
  C      0.242068    1.257423   -0.073598
  C      0.787817   -0.074593   -0.013274
  O     -1.805768    2.669091   -0.069880
  O      0.600630   -2.421907    0.084062
  C      0.000931   -3.532108    0.740763
  H      0.790952   -4.301959    0.831982
  H     -0.844026   -3.959105    0.157814
  H     -0.364424   -3.258936    1.754231
  C     -1.159269    3.837274   -0.560191
  H     -1.946507    4.609875   -0.650294
  H     -0.700770    3.664139   -1.557188
  H     -0.377877    4.205906    0.138969
  C      2.214623   -0.087418   -0.020195
  S      1.551498    2.449002   -0.116601
  C      2.784516    1.177271   -0.076839
  H     -3.756534    0.994199    0.873853
  H      2.560847   -0.739321   -0.859908
  H      2.568068   -0.672934    0.864493
  H     -4.649206   -1.134219   -0.785625
  H      3.435706    1.324052   -0.965814
  H     -4.637762   -1.070226    0.968145
  H      3.450627    1.397372    0.785658

 Multiplicity           Mult            ....    1
 Number of Electrons    NEL             ....  134
 Basis Dimension        Dim             ....  302

ORBITAL ENERGIES
----------------

  NO   OCC          E(Eh)            E(eV)
   0   2.0000     -88.080369     -2396.7887
   1   2.0000     -88.080301     -2396.7868
   2   2.0000     -18.807259      -511.7715
   3   2.0000     -18.805098      -511.7127
   4   2.0000      -9.966357      -271.1984
   5   2.0000      -9.966238      -271.1951
   6   2.0000      -9.964999      -271.1614
   7   2.0000      -9.964668      -271.1524
   8   2.0000      -9.934445      -270.3300
   9   2.0000      -9.934107      -270.3208
  10   2.0000      -9.931541      -270.2510
  11   2.0000      -9.931016      -270.2367
  12   2.0000      -9.913964      -269.7727
  13   2.0000      -9.913634      -269.7637
  14   2.0000      -9.911301      -269.7002
  15   2.0000      -9.911267      -269.6993
  16   2.0000      -7.677812      -208.9239
  17   2.0000      -7.677773      -208.9228
  18   2.0000      -5.706293      -155.2761
  19   2.0000      -5.706249      -155.2749
  20   2.0000      -5.701518      -155.1462
  21   2.0000      -5.701505      -155.1458
  22   2.0000      -5.694041      -154.9427
  23   2.0000      -5.694037      -154.9426
  24   2.0000      -0.966299       -26.2943
  25   2.0000      -0.963585       -26.2205
  26   2.0000      -0.808626       -22.0038
  27   2.0000      -0.795981       -21.6597
  28   2.0000      -0.729022       -19.8377
  29   2.0000      -0.701608       -19.0917
  30   2.0000      -0.677905       -18.4467
  31   2.0000      -0.658766       -17.9259
  32   2.0000      -0.642997       -17.4968
  33   2.0000      -0.638001       -17.3609
  34   2.0000      -0.586150       -15.9500
  35   2.0000      -0.566625       -15.4186
  36   2.0000      -0.517115       -14.0714
  37   2.0000      -0.515960       -14.0400
  38   2.0000      -0.503360       -13.6971
  39   2.0000      -0.479038       -13.0353
  40   2.0000      -0.462771       -12.5926
  41   2.0000      -0.449367       -12.2279
  42   2.0000      -0.438354       -11.9282
  43   2.0000      -0.432944       -11.7810
  44   2.0000      -0.412540       -11.2258
  45   2.0000      -0.411378       -11.1942
  46   2.0000      -0.406663       -11.0659
  47   2.0000      -0.397253       -10.8098
  48   2.0000      -0.392046       -10.6681
  49   2.0000      -0.373432       -10.1616
  50   2.0000      -0.357660        -9.7324
  51   2.0000      -0.353004        -9.6057
  52   2.0000      -0.341429        -9.2907
  53   2.0000      -0.330804        -9.0016
  54   2.0000      -0.321763        -8.7556
  55   2.0000      -0.320093        -8.7102
  56   2.0000      -0.306114        -8.3298
  57   2.0000      -0.304327        -8.2812
  58   2.0000      -0.297641        -8.0992
  59   2.0000      -0.282812        -7.6957
  60   2.0000      -0.281034        -7.6473
  61   2.0000      -0.278012        -7.5651
  62   2.0000      -0.259977        -7.0743
  63   2.0000      -0.251826        -6.8525
  64   2.0000      -0.185898        -5.0585
  65   2.0000      -0.172254        -4.6873
  66   2.0000      -0.148016        -4.0277
  67   0.0000      -0.035579        -0.9682
  68   0.0000      -0.015240        -0.4147
  69   0.0000       0.001595         0.0434
  70   0.0000       0.011120         0.3026
  71   0.0000       0.038077         1.0361

MULLIKEN ATOMIC CHARGES
-----------------------
   0 C :   -0.047261
   1 C :    0.079488
   2 S :   -0.051557
   3 C :   -0.112750
   4 H :    0.031972
   5 C :   -0.088088
   6 C :    0.066110
   7 C :    0.074202
   8 C :   -0.098077
   9 C :   -0.106710
  10 O :   -0.286794
  11 O :   -0.289472
  12 C :    0.105292
  13 H :    0.047149
  14 H :    0.053298
  15 H :    0.043345
  16 C :    0.104187
  17 H :    0.048465
  18 H :    0.046728
  19 H :    0.054125
  20 C :    0.076682
  21 S :   -0.053984
  22 C :   -0.045643
  23 H :    0.036927
  24 H :    0.038126
  25 H :    0.031248
  26 H :    0.061109
  27 H :    0.060496
  28 H :    0.061107
  29 H :    0.060280
Sum of atomic charges:   -0.0000000

LOEWDIN ATOMIC CHARGES
----------------------
   0 C :   -0.142672
   1 C :   -0.065380
   2 S :    0.280549
   3 C :   -0.064574
   4 H :    0.047095
   5 C :   -0.187398
   6 C :   -0.001334
   7 C :    0.001328
   8 C :   -0.189431
   9 C :   -0.062900
  10 O :   -0.090925
  11 O :   -0.094988
  12 C :    0.051689
  13 H :    0.030275
  14 H :    0.011236
  15 H :    0.020499
  16 C :    0.050478
  17 H :    0.031145
  18 H :    0.020110
  19 H :    0.013244
  20 C :   -0.064861
  21 S :    0.281420
  22 C :   -0.145872
  23 H :    0.048796
  24 H :    0.049194
  25 H :    0.046829
  26 H :    0.031931
  27 H :    0.031428
  28 H :    0.031376
  29 H :    0.031713

  Mayer bond orders larger than 0.100000
B(  0-C ,  1-C ) :   1.1171 B(  0-C ,  2-S ) :   0.9843 B(  0-C , 26-H ) :   0.9247
B(  0-C , 28-H ) :   0.9228 B(  1-C ,  3-C ) :   1.1141 B(  1-C ,  4-H ) :   0.8808
B(  1-C , 23-H ) :   0.8807 B(  2-S ,  5-C ) :   0.9828 B(  3-C ,  5-C ) :   1.3885
B(  3-C ,  7-C ) :   1.3770 B(  3-C ,  9-C ) :   0.1313 B(  5-C ,  6-C ) :   1.3380
B(  6-C ,  9-C ) :   1.3779 B(  6-C , 11-O ) :   1.1949 B(  7-C ,  8-C ) :   1.3378
B(  7-C , 10-O ) :   1.1991 B(  8-C ,  9-C ) :   1.3864 B(  8-C , 21-S ) :   0.9786
B(  9-C , 20-C ) :   1.1141 B( 10-O , 16-C ) :   0.9585 B( 11-O , 12-C ) :   0.9617
B( 12-C , 13-H ) :   0.9706 B( 12-C , 14-H ) :   0.9502 B( 12-C , 15-H ) :   0.9610
B( 16-C , 17-H ) :   0.9697 B( 16-C , 18-H ) :   0.9605 B( 16-C , 19-H ) :   0.9515
B( 20-C , 22-C ) :   1.1170 B( 20-C , 24-H ) :   0.8817 B( 20-C , 25-H ) :   0.8812
B( 21-S , 22-C ) :   0.9849 B( 22-C , 27-H ) :   0.9222 B( 22-C , 29-H ) :   0.9240

Dispersion correction           -0.065979986
FINAL SINGLE POINT ENERGY     -1411.923660698565

DIPOLE MOMENT
-------------
                                X             Y             Z
Electronic contribution:     -0.10960      -0.09520      -0.40554
Nuclear contribution   :      0.11053       0.15343       0.47179
                        -----------------------------------------
Total Dipole Moment    :      0.00094       0.05823       0.06625
                        -----------------------------------------
Magnitude (a.u.)       :      0.08821
Magnitude (Debye)      :      0.22420

Rotational constants in cm-1:     0.020580     0.012925     0.008046
Rotational constants in MHz :   616.987456   387.468529   241.222781

                             ****ORCA TERMINATED NORMALLY****
TOTAL RUN TIME: 0 days 0 hours 6 minutes 57 seconds 475 msec
