                         Program Version 4.2.0 -  RELEASE  -
|  1> ! RI BP86 def2-SVP def2/J D3BJ TIGHTSCF  Opt Grid3 FinalGrid5
|  2> %maxcore 3000
|  3> %geom
|  4> optimizehydrogens true
|  5> end
|  6>
|  7>
|  8> *xyz 0 1
|  9> C	-0.770450	-1.417466	0.324953
| 10> C	0.006426	-0.274412	0.115070
| 11> S	0.291054	-2.818028	0.423863
| 12> C	1.426639	-0.519341	0.038452
| 13> C	1.768366	-1.887391	0.191519
| 14> S	-0.412678	1.424345	-0.052525
| 15> C	1.300378	1.835301	-0.278616
| 16> C	2.113793	0.715835	-0.192279
| 17> F	3.449379	0.782242	-0.308478
| 18> C	1.633464	3.244870	-0.550828
| 19> O	0.838547	4.150916	-0.373641
| 20> O	2.850805	3.442300	-1.136951
| 21> C	4.034613	3.700472	-0.358229
| 22> C	5.019618	4.496722	-1.207664
| 23> H	4.474318	2.733633	-0.053738
| 24> H	3.758430	4.273602	0.556384
| 25> C	6.405884	4.528647	-0.528927
| 26> C	7.028937	3.154349	-0.244275
| 27> H	6.335814	5.118278	0.413322
| 28> H	7.082218	5.111019	-1.191053
| 29> H	6.523158	2.614848	0.582959
| 30> H	8.096253	3.252043	0.039423
| 31> H	6.983494	2.493472	-1.136513
| 32> C	4.497581	5.919015	-1.547111
| 33> H	5.134308	3.922659	-2.156574
| 34> C	4.245997	6.178233	-3.041146
| 35> H	5.232707	6.667867	-1.180501
| 36> H	3.557302	6.114443	-0.987164
| 37> C	3.047919	5.427640	-3.637363
| 38> H	5.167139	5.925419	-3.616502
| 39> H	4.092100	7.270754	-3.190093
| 40> C	2.788890	5.782768	-5.103786
| 41> H	2.146107	5.643918	-3.024085
| 42> H	3.204409	4.332692	-3.532959
| 43> H	2.561059	6.863175	-5.225974
| 44> H	1.932460	5.212537	-5.518299
| 45> H	3.673533	5.560461	-5.738240
| 46> H	-1.840637	-1.528786	0.418265
| 47> H	2.708669	-2.418085	0.215885
| 48> **                         ****END OF INPUT****
 Total Charge           Charge          ....    0
 Multiplicity           Mult            ....    1
 Number of Electrons    NEL             ....  166
Dispersion correction           -0.074770695
FINAL SINGLE POINT ENERGY     -1628.992202619419
Dispersion correction            ... done
Dispersion correction           -0.074758042
FINAL SINGLE POINT ENERGY     -1628.992681024672
Dispersion correction            ... done
Dispersion correction           -0.074759498
FINAL SINGLE POINT ENERGY     -1628.992789732779
Dispersion correction            ... done
Dispersion correction           -0.074765707
FINAL SINGLE POINT ENERGY     -1628.992865933704
Dispersion correction            ... done
Dispersion correction           -0.074767939
FINAL SINGLE POINT ENERGY     -1628.992872957184
Dispersion correction            ... done
                    ***********************HURRAY********************

CARTESIAN COORDINATES (ANGSTROEM)
---------------------------------
  C     -0.771713   -1.417119    0.328284
  C      0.005523   -0.274431    0.117745
  S      0.289289   -2.818057    0.427244
  C      1.425613   -0.519930    0.040674
  C      1.766872   -1.888062    0.194050
  S     -0.412991    1.424434   -0.050236
  C      1.300138    1.834659   -0.277099
  C      2.113155    0.714908   -0.190709
  F      3.448723    0.780765   -0.307429
  C      1.633664    3.244013   -0.549886
  O      0.839162    4.150421   -0.372691
  O      2.850861    3.440788   -1.136528
  C      4.035060    3.698753   -0.358331
  C      5.020053    4.494354   -1.208389
  H      4.466205    2.731958   -0.035956
  H      3.758619    4.281662    0.550605
  C      6.406585    4.525962   -0.530181
  C      7.029216    3.151516   -0.245324
  H      6.335425    5.111272    0.415179
  H      7.086308    5.109111   -1.188330
  H      6.494748    2.598152    0.552690
  H      8.083567    3.253524    0.082958
  H      7.023765    2.513309   -1.154333
  C      4.498435    5.916739   -1.548095
  H      5.135759    3.919276   -2.156571
  C      4.246391    6.175576   -3.042118
  H      5.229281    6.665088   -1.172699
  H      3.554258    6.108213   -0.992593
  C      3.047802    5.425254   -3.637647
  H      5.167387    5.926851   -3.619809
  H      4.091086    7.267937   -3.191250
  C      2.788360    5.780013   -5.104086
  H      2.145849    5.648438   -3.026557
  H      3.199347    4.329903   -3.531206
  H      2.584488    6.864970   -5.229044
  H      1.916547    5.228178   -5.511402
  H      3.664559    5.536339   -5.742429
  H     -1.856296   -1.527954    0.429912
  H      2.746900   -2.375817    0.178164

 Multiplicity           Mult            ....    1
 Number of Electrons    NEL             ....  166
 Basis Dimension        Dim             ....  383

ORBITAL ENERGIES
----------------

  NO   OCC          E(Eh)            E(eV)
   0   2.0000     -88.149862     -2398.6797
   1   2.0000     -88.129784     -2398.1333
   2   2.0000     -24.331506      -662.0939
   3   2.0000     -18.803843      -511.6786
   4   2.0000     -18.775808      -510.9157
   5   2.0000     -10.046720      -273.3852
   6   2.0000     -10.028003      -272.8758
   7   2.0000      -9.973180      -271.3840
   8   2.0000      -9.971362      -271.3345
   9   2.0000      -9.968455      -271.2554
  10   2.0000      -9.967895      -271.2402
  11   2.0000      -9.965377      -271.1717
  12   2.0000      -9.959071      -271.0001
  13   2.0000      -9.918070      -269.8844
  14   2.0000      -9.917538      -269.8699
  15   2.0000      -9.911619      -269.7089
  16   2.0000      -9.904190      -269.5067
  17   2.0000      -9.901606      -269.4364
  18   2.0000      -9.895561      -269.2719
  19   2.0000      -9.894488      -269.2427
  20   2.0000      -7.744868      -210.7486
  21   2.0000      -7.725640      -210.2254
  22   2.0000      -5.771905      -157.0615
  23   2.0000      -5.767234      -156.9344
  24   2.0000      -5.764808      -156.8684
  25   2.0000      -5.753418      -156.5585
  26   2.0000      -5.749268      -156.4455
  27   2.0000      -5.743137      -156.2787
  28   2.0000      -1.138237       -30.9730
  29   2.0000      -0.993231       -27.0272
  30   2.0000      -0.922025       -25.0896
  31   2.0000      -0.842029       -22.9128
  32   2.0000      -0.788087       -21.4449
  33   2.0000      -0.741994       -20.1907
  34   2.0000      -0.704315       -19.1654
  35   2.0000      -0.698806       -19.0155
  36   2.0000      -0.687578       -18.7099
  37   2.0000      -0.661426       -17.9983
  38   2.0000      -0.646252       -17.5854
  39   2.0000      -0.638032       -17.3617
  40   2.0000      -0.597890       -16.2694
  41   2.0000      -0.581247       -15.8165
  42   2.0000      -0.547321       -14.8934
  43   2.0000      -0.542980       -14.7752
  44   2.0000      -0.521344       -14.1865
  45   2.0000      -0.515989       -14.0408
  46   2.0000      -0.509418       -13.8620
  47   2.0000      -0.501882       -13.6569
  48   2.0000      -0.494139       -13.4462
  49   2.0000      -0.460867       -12.5408
  50   2.0000      -0.442227       -12.0336
  51   2.0000      -0.434666       -11.8279
  52   2.0000      -0.425274       -11.5723
  53   2.0000      -0.413468       -11.2510
  54   2.0000      -0.402640       -10.9564
  55   2.0000      -0.400688       -10.9033
  56   2.0000      -0.393201       -10.6995
  57   2.0000      -0.390760       -10.6331
  58   2.0000      -0.389247       -10.5920
  59   2.0000      -0.380736       -10.3604
  60   2.0000      -0.375493       -10.2177
  61   2.0000      -0.369901       -10.0655
  62   2.0000      -0.365770        -9.9531
  63   2.0000      -0.357619        -9.7313
  64   2.0000      -0.351271        -9.5586
  65   2.0000      -0.339671        -9.2429
  66   2.0000      -0.331463        -9.0196
  67   2.0000      -0.325601        -8.8601
  68   2.0000      -0.318468        -8.6660
  69   2.0000      -0.315777        -8.5927
  70   2.0000      -0.311092        -8.4652
  71   2.0000      -0.304044        -8.2735
  72   2.0000      -0.298496        -8.1225
  73   2.0000      -0.290364        -7.9012
  74   2.0000      -0.283933        -7.7262
  75   2.0000      -0.275607        -7.4996
  76   2.0000      -0.268348        -7.3021
  77   2.0000      -0.264950        -7.2097
  78   2.0000      -0.264677        -7.2022
  79   2.0000      -0.246387        -6.7045
  80   2.0000      -0.241854        -6.5812
  81   2.0000      -0.229546        -6.2463
  82   2.0000      -0.201331        -5.4785
  83   0.0000      -0.112484        -3.0609
  84   0.0000      -0.061586        -1.6758
  85   0.0000      -0.032478        -0.8838
  86   0.0000      -0.022450        -0.6109
  87   0.0000      -0.004190        -0.1140

MULLIKEN ATOMIC CHARGES
-----------------------
   0 C :   -0.158501
   1 C :   -0.018715
   2 S :    0.121851
   3 C :    0.036274
   4 C :   -0.130177
   5 S :    0.178561
   6 C :   -0.241237
   7 C :    0.251836
   8 F :   -0.134813
   9 C :    0.186494
  10 O :   -0.149141
  11 O :   -0.298481
  12 C :    0.192065
  13 C :   -0.128282
  14 H :    0.020372
  15 H :    0.019071
  16 C :   -0.046127
  17 C :   -0.055353
  18 H :    0.021138
  19 H :    0.027468
  20 H :    0.039355
  21 H :    0.029682
  22 H :    0.031317
  23 C :    0.061408
  24 H :    0.022936
  25 C :   -0.057778
  26 H :    0.003617
  27 H :    0.019599
  28 C :   -0.059683
  29 H :    0.008076
  30 H :    0.009462
  31 C :   -0.043547
  32 H :    0.028002
  33 H :    0.025054
  34 H :    0.021977
  35 H :    0.027411
  36 H :    0.019118
  37 H :    0.059236
  38 H :    0.060453
Sum of atomic charges:   -0.0000000

LOEWDIN ATOMIC CHARGES
----------------------
   0 C :   -0.215035
   1 C :   -0.186368
   2 S :    0.462056
   3 C :   -0.103374
   4 C :   -0.188911
   5 S :    0.421107
   6 C :   -0.241144
   7 C :    0.057851
   8 F :   -0.017055
   9 C :    0.051482
  10 O :   -0.131392
  11 O :   -0.107285
  12 C :    0.084037
  13 C :   -0.050741
  14 H :    0.006194
  15 H :    0.016900
  16 C :   -0.044095
  17 C :   -0.077768
  18 H :    0.025111
  19 H :    0.030148
  20 H :    0.025398
  21 H :    0.031886
  22 H :    0.029408
  23 C :   -0.037021
  24 H :    0.028934
  25 C :   -0.045307
  26 H :    0.025746
  27 H :    0.029746
  28 C :   -0.055509
  29 H :    0.019241
  30 H :    0.024225
  31 C :   -0.075639
  32 H :    0.028304
  33 H :    0.021780
  34 H :    0.024335
  35 H :    0.028062
  36 H :    0.023614
  37 H :    0.040186
  38 H :    0.040895

  Mayer bond orders larger than 0.100000
B(  0-C ,  1-C ) :   1.4745 B(  0-C ,  2-S ) :   1.1722 B(  0-C ,  4-C ) :   0.1309
B(  0-C , 37-H ) :   0.9648 B(  1-C ,  3-C ) :   1.2465 B(  1-C ,  5-S ) :   1.0499
B(  2-S ,  4-C ) :   1.1925 B(  3-C ,  4-C ) :   1.3763 B(  3-C ,  7-C ) :   1.1564
B(  4-C , 38-H ) :   0.9615 B(  5-S ,  6-C ) :   1.0555 B(  6-C ,  7-C ) :   1.4618
B(  6-C ,  9-C ) :   0.9959 B(  7-C ,  8-F ) :   1.1686 B(  9-C , 10-O ) :   2.1433
B(  9-C , 11-O ) :   1.1296 B( 11-O , 12-C ) :   0.9187 B( 12-C , 13-C ) :   1.0572
B( 12-C , 14-H ) :   0.9185 B( 12-C , 15-H ) :   0.9234 B( 13-C , 16-C ) :   1.0556
B( 13-C , 23-C ) :   1.0118 B( 13-C , 24-H ) :   0.9134 B( 16-C , 17-C ) :   1.1092
B( 16-C , 18-H ) :   0.9328 B( 16-C , 19-H ) :   0.9338 B( 17-C , 20-H ) :   0.9591
B( 17-C , 21-H ) :   0.9559 B( 17-C , 22-H ) :   0.9643 B( 23-C , 25-C ) :   1.1004
B( 23-C , 26-H ) :   0.9258 B( 23-C , 27-H ) :   0.9224 B( 25-C , 28-C ) :   1.0890
B( 25-C , 29-H ) :   0.9358 B( 25-C , 30-H ) :   0.9300 B( 28-C , 31-C ) :   1.1057
B( 28-C , 32-H ) :   0.9375 B( 28-C , 33-H ) :   0.9338 B( 31-C , 34-H ) :   0.9655
B( 31-C , 35-H ) :   0.9629 B( 31-C , 36-H ) :   0.9649

Dispersion correction           -0.074768641
FINAL SINGLE POINT ENERGY     -1628.992874434448

DIPOLE MOMENT
-------------
                                X             Y             Z
Electronic contribution:    -32.66317     -39.56247      19.28151
Nuclear contribution   :     33.14560      38.19295     -18.83202
                        -----------------------------------------
Total Dipole Moment    :      0.48243      -1.36952       0.44949
                        -----------------------------------------
Magnitude (a.u.)       :      1.51999
Magnitude (Debye)      :      3.86350

Rotational constants in cm-1:     0.016145     0.004386     0.003819
Rotational constants in MHz :   484.022878   131.490914   114.496921

                             ****ORCA TERMINATED NORMALLY****
TOTAL RUN TIME: 0 days 0 hours 8 minutes 1 seconds 568 msec
