                         Program Version 4.2.0 -  RELEASE  -
|  1> ! RI BP86 def2-SVP def2/J D3BJ TIGHTSCF  Opt Grid3 FinalGrid5
|  2> %maxcore 3000
|  3> %geom
|  4> optimizehydrogens true
|  5> end
|  6>
|  7>
|  8> *xyz 0 1
|  9> C	-0.656718	-0.032756	0.000275
| 10> C	-0.737296	1.362986	0.000276
| 11> C	0.513583	2.037264	0.000094
| 12> H	-1.699148	1.895942	0.000412
| 13> C	1.598672	1.142091	-0.000013
| 14> S	1.033887	-0.523236	0.000070
| 15> C	0.641756	3.535257	0.000052
| 16> H	-0.355910	4.014399	0.000172
| 17> H	1.195047	3.900832	-0.891119
| 18> H	1.195277	3.900863	0.891066
| 19> H	-1.469005	-0.744507	0.000416
| 20> H	2.663695	1.321327	-0.000130
| 21> **                         ****END OF INPUT****
 Total Charge           Charge          ....    0
 Multiplicity           Mult            ....    1
 Number of Electrons    NEL             ....   52
Dispersion correction           -0.018659675
FINAL SINGLE POINT ENERGY      -592.118407186393
Dispersion correction            ... done
Dispersion correction           -0.018646613
FINAL SINGLE POINT ENERGY      -592.118839448216
Dispersion correction            ... done
Dispersion correction           -0.018646115
FINAL SINGLE POINT ENERGY      -592.118893126097
Dispersion correction            ... done
Dispersion correction           -0.018647767
FINAL SINGLE POINT ENERGY      -592.118947106605
Dispersion correction            ... done
Dispersion correction           -0.018648711
FINAL SINGLE POINT ENERGY      -592.118948629275
Dispersion correction            ... done
                    ***********************HURRAY********************

CARTESIAN COORDINATES (ANGSTROEM)
---------------------------------
  C     -0.665282   -0.029482    0.000286
  C     -0.740319    1.366568    0.000283
  C      0.513227    2.035876    0.000099
  H     -1.700877    1.903196    0.000397
  C      1.594754    1.136403   -0.000005
  S      1.023363   -0.526669    0.000083
  C      0.647345    3.533348    0.000053
  H     -0.346356    4.021556    0.000179
  H      1.197561    3.898052   -0.892428
  H      1.197805    3.898086    0.892369
  H     -1.467884   -0.775502    0.000402
  H      2.670503    1.349030   -0.000147

 Multiplicity           Mult            ....    1
 Number of Electrons    NEL             ....   52
 Basis Dimension        Dim             ....  118

ORBITAL ENERGIES
----------------

  NO   OCC          E(Eh)            E(eV)
   0   2.0000     -88.114747     -2397.7242
   1   2.0000      -9.939214      -270.4598
   2   2.0000      -9.935449      -270.3573
   3   2.0000      -9.925100      -270.0757
   4   2.0000      -9.918789      -269.9040
   5   2.0000      -9.917617      -269.8721
   6   2.0000      -7.710368      -209.8098
   7   2.0000      -5.737343      -156.1210
   8   2.0000      -5.732910      -156.0004
   9   2.0000      -5.730072      -155.9232
  10   2.0000      -0.790419       -21.5084
  11   2.0000      -0.689673       -18.7670
  12   2.0000      -0.645866       -17.5749
  13   2.0000      -0.599949       -16.3254
  14   2.0000      -0.507499       -13.8098
  15   2.0000      -0.480669       -13.0797
  16   2.0000      -0.438891       -11.9428
  17   2.0000      -0.376456       -10.2439
  18   2.0000      -0.375732       -10.2242
  19   2.0000      -0.363128        -9.8812
  20   2.0000      -0.338683        -9.2160
  21   2.0000      -0.324845        -8.8395
  22   2.0000      -0.321918        -8.7598
  23   2.0000      -0.299729        -8.1560
  24   2.0000      -0.220454        -5.9989
  25   2.0000      -0.202773        -5.5177
  26   0.0000      -0.051154        -1.3920
  27   0.0000       0.008538         0.2323
  28   0.0000       0.021089         0.5739
  29   0.0000       0.049659         1.3513
  30   0.0000       0.067605         1.8396

MULLIKEN ATOMIC CHARGES
-----------------------
   0 C :   -0.124884
   1 C :    0.013058
   2 C :   -0.061089
   3 H :    0.002899
   4 C :   -0.149496
   5 S :    0.080582
   6 C :    0.030440
   7 H :    0.024493
   8 H :    0.046202
   9 H :    0.046201
  10 H :    0.051337
  11 H :    0.040256
Sum of atomic charges:    0.0000000

LOEWDIN ATOMIC CHARGES
----------------------
   0 C :   -0.198559
   1 C :   -0.077220
   2 C :   -0.073606
   3 H :    0.032782
   4 C :   -0.207837
   5 S :    0.408853
   6 C :   -0.063193
   7 H :    0.035430
   8 H :    0.041321
   9 H :    0.041321
  10 H :    0.031763
  11 H :    0.028944

  Mayer bond orders larger than 0.100000
B(  0-C ,  1-C ) :   1.5081 B(  0-C ,  4-C ) :   0.1156 B(  0-C ,  5-S ) :   1.1834
B(  0-C , 10-H ) :   0.9615 B(  1-C ,  2-C ) :   1.3203 B(  1-C ,  3-H ) :   0.9776
B(  2-C ,  4-C ) :   1.5110 B(  2-C ,  6-C ) :   1.0911 B(  4-C ,  5-S ) :   1.1636
B(  4-C , 11-H ) :   0.9661 B(  6-C ,  7-H ) :   0.9532 B(  6-C ,  8-H ) :   0.9505
B(  6-C ,  9-H ) :   0.9505

Dispersion correction           -0.018649150
FINAL SINGLE POINT ENERGY      -592.118948793170

DIPOLE MOMENT
-------------
                                X             Y             Z
Electronic contribution:      1.39360      -7.74220      -0.00004
Nuclear contribution   :     -1.46050       8.05620       0.00004
                        -----------------------------------------
Total Dipole Moment    :     -0.06690       0.31400       0.00000
                        -----------------------------------------
Magnitude (a.u.)       :      0.32105
Magnitude (Debye)      :      0.81605

Rotational constants in cm-1:     0.225526     0.079796     0.059611
Rotational constants in MHz :  6761.103781  2392.224610  1787.079558

                             ****ORCA TERMINATED NORMALLY****
TOTAL RUN TIME: 0 days 0 hours 0 minutes 52 seconds 386 msec
