                         Program Version 4.2.0 -  RELEASE  -
|  1> ! RI BP86 def2-SVP def2/J D3BJ TIGHTSCF  Opt Grid3 FinalGrid5
|  2> %maxcore 3000
|  3> %geom
|  4> optimizehydrogens true
|  5> end
|  6>
|  7>
|  8> *xyz 0 1
|  9> C	-2.537837	-0.654302	-0.000086
| 10> C	-1.505505	-1.595828	0.000162
| 11> C	-0.190557	-1.056149	0.000329
| 12> H	-1.698751	-2.678409	0.000002
| 13> C	-0.197359	0.350068	0.000267
| 14> S	-1.848743	0.962091	0.000535
| 15> C	1.048852	-1.907436	0.000362
| 16> H	0.785565	-2.982609	0.000328
| 17> H	1.682660	-1.712841	0.891572
| 18> H	1.682733	-1.712800	-0.890788
| 19> H	-3.598932	-0.855492	-0.000443
| 20> H	0.614928	1.061819	0.000126
| 21> **                         ****END OF INPUT****
 Total Charge           Charge          ....    0
 Multiplicity           Mult            ....    1
 Number of Electrons    NEL             ....   52
Dispersion correction           -0.018653111
FINAL SINGLE POINT ENERGY      -592.118218468531
Dispersion correction            ... done
Dispersion correction           -0.018639841
FINAL SINGLE POINT ENERGY      -592.118701308882
Dispersion correction            ... done
Dispersion correction           -0.018638724
FINAL SINGLE POINT ENERGY      -592.118794287766
Dispersion correction            ... done
Dispersion correction           -0.018640190
FINAL SINGLE POINT ENERGY      -592.118876726461
Dispersion correction            ... done
Dispersion correction           -0.018641509
FINAL SINGLE POINT ENERGY      -592.118880484401
Dispersion correction            ... done
                    ***********************HURRAY********************

CARTESIAN COORDINATES (ANGSTROEM)
---------------------------------
  C     -2.540546   -0.667118   -0.000177
  C     -1.503601   -1.603561    0.000115
  C     -0.191320   -1.057428    0.000277
  H     -1.693312   -2.687647    0.000011
  C     -0.205031    0.348739    0.000165
  S     -1.859402    0.952641    0.000393
  C      1.052256   -1.902615    0.000354
  H      0.800524   -2.980872    0.000352
  H      1.682953   -1.707652    0.892811
  H      1.683044   -1.707674   -0.892044
  H     -3.625520   -0.819894   -0.000247
  H      0.637009    1.051195    0.000356

 Multiplicity           Mult            ....    1
 Number of Electrons    NEL             ....   52
 Basis Dimension        Dim             ....  118

ORBITAL ENERGIES
----------------

  NO   OCC          E(Eh)            E(eV)
   0   2.0000     -88.114549     -2397.7188
   1   2.0000      -9.939162      -270.4584
   2   2.0000      -9.935659      -270.3630
   3   2.0000      -9.925217      -270.0789
   4   2.0000      -9.919023      -269.9103
   5   2.0000      -9.917513      -269.8692
   6   2.0000      -7.710188      -209.8049
   7   2.0000      -5.737168      -156.1163
   8   2.0000      -5.732718      -155.9952
   9   2.0000      -5.729890      -155.9182
  10   2.0000      -0.790625       -21.5140
  11   2.0000      -0.689807       -18.7706
  12   2.0000      -0.645636       -17.5686
  13   2.0000      -0.600358       -16.3366
  14   2.0000      -0.507555       -13.8113
  15   2.0000      -0.480620       -13.0783
  16   2.0000      -0.439093       -11.9483
  17   2.0000      -0.376487       -10.2447
  18   2.0000      -0.375835       -10.2270
  19   2.0000      -0.363734        -9.8977
  20   2.0000      -0.338695        -9.2164
  21   2.0000      -0.324880        -8.8404
  22   2.0000      -0.322081        -8.7643
  23   2.0000      -0.299122        -8.1395
  24   2.0000      -0.220128        -5.9900
  25   2.0000      -0.203226        -5.5301
  26   0.0000      -0.051064        -1.3895
  27   0.0000       0.009060         0.2465
  28   0.0000       0.021158         0.5757
  29   0.0000       0.049530         1.3478
  30   0.0000       0.067448         1.8354

MULLIKEN ATOMIC CHARGES
-----------------------
   0 C :   -0.123708
   1 C :    0.009381
   2 C :   -0.057726
   3 H :    0.003224
   4 C :   -0.150120
   5 S :    0.079966
   6 C :    0.028635
   7 H :    0.025343
   8 H :    0.046423
   9 H :    0.046431
  10 H :    0.051882
  11 H :    0.040269
Sum of atomic charges:   -0.0000000

LOEWDIN ATOMIC CHARGES
----------------------
   0 C :   -0.199512
   1 C :   -0.078061
   2 C :   -0.073288
   3 H :    0.032586
   4 C :   -0.207003
   5 S :    0.408967
   6 C :   -0.063337
   7 H :    0.035626
   8 H :    0.041406
   9 H :    0.041411
  10 H :    0.032257
  11 H :    0.028948

  Mayer bond orders larger than 0.100000
B(  0-C ,  1-C ) :   1.5078 B(  0-C ,  4-C ) :   0.1157 B(  0-C ,  5-S ) :   1.1839
B(  0-C , 10-H ) :   0.9616 B(  1-C ,  2-C ) :   1.3216 B(  1-C ,  3-H ) :   0.9772
B(  2-C ,  4-C ) :   1.5097 B(  2-C ,  6-C ) :   1.0910 B(  4-C ,  5-S ) :   1.1631
B(  4-C , 11-H ) :   0.9666 B(  6-C ,  7-H ) :   0.9533 B(  6-C ,  8-H ) :   0.9504
B(  6-C ,  9-H ) :   0.9505

Dispersion correction           -0.018642060
FINAL SINGLE POINT ENERGY      -592.118880824583

DIPOLE MOMENT
-------------
                                X             Y             Z
Electronic contribution:     -5.12093       5.96936       0.00027
Nuclear contribution   :      5.32253      -6.22092      -0.00014
                        -----------------------------------------
Total Dipole Moment    :      0.20160      -0.25155       0.00013
                        -----------------------------------------
Magnitude (a.u.)       :      0.32237
Magnitude (Debye)      :      0.81941

Rotational constants in cm-1:     0.225888     0.079769     0.059621
Rotational constants in MHz :  6771.938469  2391.409756  1787.381782

                             ****ORCA TERMINATED NORMALLY****
TOTAL RUN TIME: 0 days 0 hours 1 minutes 34 seconds 114 msec
