 Q-Chem 5.4, Q-Chem, Inc., Pleasanton, CA (2021)
 Q-Chem 5.4.0 for Intel X86 EM64T Linux

User input:
--------------------------------------------------------------
$molecule
0 1
C	-0.591833	-0.237129	0.017231
C	0.156067	0.194671	1.116631
C	1.354567	0.886571	0.793931
H	-0.163333	0.010271	2.153331
C	1.545667	0.996871	-0.595269
S	0.224367	0.234071	-1.469569
C	2.296667	1.430471	1.831831
H	1.927967	1.217571	2.853931
H	2.417067	2.530371	1.743431
H	3.309467	0.984671	1.743431
C	-0.591833	-1.677829	0.017231
H	0.423067	-1.677529	-0.352069
H	-0.311733	-2.381629	0.787031
H	-0.915733	-2.196729	-0.872769
H	2.367767	1.471471	-1.144369
$end

$rem
JOBTYPE		SP
EXCHANGE	HF
CORRELATION	pRIMP2
BASIS		cc-pvtz
METHOD		rimp2
AUX_BASIS	rimp2-cc-pvtz
SOLVENT_METHOD	PCM
PURECART	11111
SYMMETRY	false
MEM_TOTAL	110000
SCF_CONVERGENCE = 6
THRESH=10
$end

$solvent
dielectric 4.90
$end
--------------------------------------------------------------

             Standard Nuclear Orientation (Angstroms)
    I     Atom           X                Y                Z
 ----------------------------------------------------------------
    1      C      -0.5918330000    -0.2371290000     0.0172310000
    2      C       0.1560670000     0.1946710000     1.1166310000
    3      C       1.3545670000     0.8865710000     0.7939310000
    4      H      -0.1633330000     0.0102710000     2.1533310000
    5      C       1.5456670000     0.9968710000    -0.5952690000
    6      S       0.2243670000     0.2340710000    -1.4695690000
    7      C       2.2966670000     1.4304710000     1.8318310000
    8      H       1.9279670000     1.2175710000     2.8539310000
    9      H       2.4170670000     2.5303710000     1.7434310000
   10      H       3.3094670000     0.9846710000     1.7434310000
   11      C      -0.5918330000    -1.6778290000     0.0172310000
   12      H       0.4230670000    -1.6775290000    -0.3520690000
   13      H      -0.3117330000    -2.3816290000     0.7870310000
   14      H      -0.9157330000    -2.1967290000    -0.8727690000
   15      H       2.3677670000     1.4714710000    -1.1443690000
 ----------------------------------------------------------------

   10    -629.3472865108      8.18e-07  Convergence criterion met
 Total energy in the final basis set =     -629.3472865108
        RIMP2         total energy =      -630.5382656794 a.u.

                    Orbital Energies (a.u.)
 --------------------------------------------------------------

 Alpha MOs
 -- Occupied --
-91.9716 -11.2803 -11.2558 -11.2512 -11.2474 -11.2294 -11.2133  -8.9733
 -6.6540  -6.6532  -6.6529  -1.1789  -1.0603  -0.9972  -0.9405  -0.8791
 -0.7543  -0.7296  -0.6471  -0.5903  -0.5840  -0.5661  -0.5544  -0.5459
 -0.5125  -0.4923  -0.4621  -0.4306  -0.3402  -0.2894

          Ground-State Mulliken Net Atomic Charges

     Atom                 Charge (a.u.)
  ----------------------------------------
      1 C                    -0.070141
      2 C                    -0.158449
      3 C                    -0.008330
      4 H                     0.184613
      5 C                    -0.199549
      6 S                     0.001529
      7 C                    -0.268292
      8 H                     0.102574
      9 H                     0.107698
     10 H                     0.105368
     11 C                    -0.361599
     12 H                     0.113319
     13 H                     0.142706
     14 H                     0.110806
     15 H                     0.197748
  ----------------------------------------
  Sum of atomic charges =     0.000000

                    Cartesian Multipole Moments
 -----------------------------------------------------------------
    Charge (ESU x 10^10)
                -0.0000
    Dipole Moment (Debye)
         X       2.7739      Y      -0.1298      Z       1.6049
       Tot       3.2074
    Quadrupole Moments (Debye-Ang)
        XX     -48.7846     XY       3.6753     YY     -49.8431
        XZ       0.0049     YZ       0.2701     ZZ     -47.8581

 Total job time:  167.00s(wall), 164.85s(cpu)
        *  Thank you very much for using Q-Chem.  Have a nice day.  *
