 Q-Chem 5.4, Q-Chem, Inc., Pleasanton, CA (2021)
 Q-Chem 5.4.0 for Intel X86 EM64T Linux

User input:
--------------------------------------------------------------
$molecule
0 1
C	-0.586061	-0.237127	0.010353
C	0.161839	0.194673	1.109753
C	1.360339	0.886573	0.787053
H	-0.157561	0.010273	2.146453
C	1.551439	0.996873	-0.602147
S	0.230139	0.234073	-1.476447
C	2.302439	1.430473	1.824953
H	1.933739	1.217573	2.847053
H	2.422839	2.530373	1.736553
H	3.315239	0.984673	1.736553
C	-0.586061	-1.677827	0.010353
H	-0.773761	-1.678027	1.073953
H	0.220639	-2.381627	0.152653
H	-1.518761	-2.196727	-0.154147
H	2.373539	1.471473	-1.151247
$end

$rem
JOBTYPE		SP
EXCHANGE	HF
CORRELATION	pRIMP2
BASIS		cc-pvtz
METHOD		rimp2
AUX_BASIS	rimp2-cc-pvtz
SOLVENT_METHOD	PCM
PURECART	11111
SYMMETRY	false
MEM_TOTAL	110000
SCF_CONVERGENCE = 6
THRESH=10
$end

$solvent
dielectric 4.90
$end
--------------------------------------------------------------

             Standard Nuclear Orientation (Angstroms)
    I     Atom           X                Y                Z
 ----------------------------------------------------------------
    1      C      -0.5860610000    -0.2371270000     0.0103530000
    2      C       0.1618390000     0.1946730000     1.1097530000
    3      C       1.3603390000     0.8865730000     0.7870530000
    4      H      -0.1575610000     0.0102730000     2.1464530000
    5      C       1.5514390000     0.9968730000    -0.6021470000
    6      S       0.2301390000     0.2340730000    -1.4764470000
    7      C       2.3024390000     1.4304730000     1.8249530000
    8      H       1.9337390000     1.2175730000     2.8470530000
    9      H       2.4228390000     2.5303730000     1.7365530000
   10      H       3.3152390000     0.9846730000     1.7365530000
   11      C      -0.5860610000    -1.6778270000     0.0103530000
   12      H      -0.7737610000    -1.6780270000     1.0739530000
   13      H       0.2206390000    -2.3816270000     0.1526530000
   14      H      -1.5187610000    -2.1967270000    -0.1541470000
   15      H       2.3735390000     1.4714730000    -1.1512470000
 ----------------------------------------------------------------

   10    -629.3492827543      9.74e-07  Convergence criterion met
 Total energy in the final basis set =     -629.3492827543
        RIMP2         total energy =      -630.5402019568 a.u.

                    Orbital Energies (a.u.)
 --------------------------------------------------------------

 Alpha MOs
 -- Occupied --
-91.9722 -11.2849 -11.2563 -11.2495 -11.2412 -11.2297 -11.2068  -8.9733
 -6.6541  -6.6532  -6.6530  -1.1748  -1.0563  -1.0021  -0.9338  -0.8834
 -0.7485  -0.7355  -0.6447  -0.5892  -0.5850  -0.5699  -0.5524  -0.5431
 -0.5212  -0.4731  -0.4568  -0.4185  -0.3326  -0.3082

          Ground-State Mulliken Net Atomic Charges

     Atom                 Charge (a.u.)
  ----------------------------------------
      1 C                    -0.109600
      2 C                    -0.114052
      3 C                    -0.024040
      4 H                     0.182194
      5 C                    -0.176713
      6 S                     0.010212
      7 C                    -0.267382
      8 H                     0.101993
      9 H                     0.106755
     10 H                     0.104846
     11 C                    -0.350971
     12 H                     0.098170
     13 H                     0.136266
     14 H                     0.104477
     15 H                     0.197845
  ----------------------------------------
  Sum of atomic charges =     0.000000

                    Cartesian Multipole Moments
 -----------------------------------------------------------------
    Charge (ESU x 10^10)
                -0.0000
    Dipole Moment (Debye)
         X       2.4907      Y       0.3260      Z       2.3159
       Tot       3.4166
    Quadrupole Moments (Debye-Ang)
        XX     -47.6615     XY       4.2554     YY     -50.1830
        XZ      -0.5122     YZ      -0.8937     ZZ     -48.0863

 Total job time:  164.46s(wall), 162.88s(cpu)
        *  Thank you very much for using Q-Chem.  Have a nice day.  *
