 Q-Chem 5.4, Q-Chem, Inc., Pleasanton, CA (2021)
 Q-Chem 5.4.0 for Intel X86 EM64T Linux

User input:
--------------------------------------------------------------
$molecule
0 1
C	-0.171488	-0.553189	0.012353
C	0.052012	0.281011	1.111753
C	0.410212	1.617711	0.789053
H	-0.043388	-0.075289	2.148453
C	0.467412	1.830811	-0.600147
S	0.072412	0.357111	-1.474447
C	0.691812	2.668411	1.826953
H	0.581612	2.257311	2.849053
H	-0.000788	3.531411	1.738553
H	1.723112	3.069411	1.738553
C	-0.171488	-1.993889	0.012353
H	-0.998888	-1.994089	0.706453
H	0.355012	-2.697689	0.639953
H	-0.780288	-2.512789	-0.713147
H	0.713112	2.747711	-1.149247
$end

$rem
JOBTYPE		SP
EXCHANGE	HF
CORRELATION	pRIMP2
BASIS		cc-pvtz
METHOD		rimp2
AUX_BASIS	rimp2-cc-pvtz
SOLVENT_METHOD	PCM
PURECART	11111
SYMMETRY	false
MEM_TOTAL	110000
SCF_CONVERGENCE = 6
THRESH=10
$end

$solvent
dielectric 4.90
$end
--------------------------------------------------------------

             Standard Nuclear Orientation (Angstroms)
    I     Atom           X                Y                Z
 ----------------------------------------------------------------
    1      C      -0.1714880000    -0.5531890000     0.0123530000
    2      C       0.0520120000     0.2810110000     1.1117530000
    3      C       0.4102120000     1.6177110000     0.7890530000
    4      H      -0.0433880000    -0.0752890000     2.1484530000
    5      C       0.4674120000     1.8308110000    -0.6001470000
    6      S       0.0724120000     0.3571110000    -1.4744470000
    7      C       0.6918120000     2.6684110000     1.8269530000
    8      H       0.5816120000     2.2573110000     2.8490530000
    9      H      -0.0007880000     3.5314110000     1.7385530000
   10      H       1.7231120000     3.0694110000     1.7385530000
   11      C      -0.1714880000    -1.9938890000     0.0123530000
   12      H      -0.9988880000    -1.9940890000     0.7064530000
   13      H       0.3550120000    -2.6976890000     0.6399530000
   14      H      -0.7802880000    -2.5127890000    -0.7131470000
   15      H       0.7131120000     2.7477110000    -1.1492470000
 ----------------------------------------------------------------

   10    -629.4186163199      5.71e-07  Convergence criterion met
 Total energy in the final basis set =     -629.4186163199
        RIMP2         total energy =      -630.5970145269 a.u.

                    Orbital Energies (a.u.)
 --------------------------------------------------------------

 Alpha MOs
 -- Occupied --
-91.9765 -11.2790 -11.2540 -11.2473 -11.2294 -11.2270 -11.2177  -8.9765
 -6.6574  -6.6568  -6.6563  -1.1605  -1.0545  -0.9983  -0.9407  -0.8837
 -0.7428  -0.7215  -0.6491  -0.5874  -0.5750  -0.5650  -0.5600  -0.5435
 -0.5103  -0.4906  -0.4639  -0.4469  -0.3375  -0.2942

          Ground-State Mulliken Net Atomic Charges

     Atom                 Charge (a.u.)
  ----------------------------------------
      1 C                     0.054412
      2 C                    -0.295586
      3 C                     0.045636
      4 H                     0.176827
      5 C                    -0.262679
      6 S                    -0.000955
      7 C                    -0.274159
      8 H                     0.101221
      9 H                     0.107027
     10 H                     0.107257
     11 C                    -0.374470
     12 H                     0.132331
     13 H                     0.154518
     14 H                     0.136415
     15 H                     0.192205
  ----------------------------------------
  Sum of atomic charges =     0.000000

                    Cartesian Multipole Moments
 -----------------------------------------------------------------
    Charge (ESU x 10^10)
                -0.0000
    Dipole Moment (Debye)
         X      -0.1991      Y      -0.3505      Z       1.9040
       Tot       1.9462
    Quadrupole Moments (Debye-Ang)
        XX     -53.3607     XY       3.3546     YY     -42.7044
        XZ       0.3044     YZ      -0.7261     ZZ     -48.6498

 Total job time:  155.51s(wall), 154.52s(cpu)
        *  Thank you very much for using Q-Chem.  Have a nice day.  *
