 Q-Chem 5.4, Q-Chem, Inc., Pleasanton, CA (2021)
 Q-Chem 5.4.0 for Intel X86 EM64T Linux

User input:
--------------------------------------------------------------
$molecule
0 1
C	-0.334325	-0.485419	0.015607
C	0.097475	0.262481	1.115007
C	0.789475	1.460981	0.792307
H	-0.086925	-0.056919	2.151707
C	0.899775	1.652081	-0.596893
S	0.136875	0.330681	-1.471193
C	1.333375	2.402981	1.830207
H	1.120575	2.034381	2.852307
H	0.887675	3.415781	1.741807
H	2.433375	2.523381	1.741807
C	-0.334325	-1.926119	0.015607
H	-1.414325	-1.926319	0.015507
H	-0.334425	-2.629919	0.834807
H	-0.334325	-2.445019	-0.931493
H	1.374475	2.474081	-1.145993
$end

$rem
JOBTYPE		SP
EXCHANGE	HF
CORRELATION	pRIMP2
BASIS		cc-pvtz
METHOD		rimp2
AUX_BASIS	rimp2-cc-pvtz
SOLVENT_METHOD	PCM
PURECART	11111
SYMMETRY	false
MEM_TOTAL	110000
SCF_CONVERGENCE = 6
THRESH=10
$end

$solvent
dielectric 4.90
$end
--------------------------------------------------------------

   10    -629.3991349351      5.69e-07  Convergence criterion met
 Total energy in the final basis set =     -629.3991349351
        RIMP2         total energy =      -630.5805349707 a.u.
 Total job time:  158.07s(wall), 154.87s(cpu)
        *  Thank you very much for using Q-Chem.  Have a nice day.  *
 Q-Chem 5.4, Q-Chem, Inc., Pleasanton, CA (2021)
 Q-Chem 5.4.0 for Intel X86 EM64T Linux

User input:
--------------------------------------------------------------
$molecule
0 1
C	-0.334325	-0.485419	0.015607
C	0.097475	0.262481	1.115007
C	0.789475	1.460981	0.792307
H	-0.086925	-0.056919	2.151707
C	0.899775	1.652081	-0.596893
S	0.136875	0.330681	-1.471193
C	1.333375	2.402981	1.830207
H	1.120575	2.034381	2.852307
H	0.887675	3.415781	1.741807
H	2.433375	2.523381	1.741807
C	-0.334325	-1.926119	0.015607
H	-1.414325	-1.926319	0.015507
H	-0.334425	-2.629919	0.834807
H	-0.334325	-2.445019	-0.931493
H	1.374475	2.474081	-1.145993
$end

$rem
JOBTYPE		SP
EXCHANGE	HF
CORRELATION	pRIMP2
BASIS		cc-pvtz
METHOD		rimp2
AUX_BASIS	rimp2-cc-pvtz
SOLVENT_METHOD	PCM
PURECART	11111
SYMMETRY	false
MEM_TOTAL	110000
SCF_CONVERGENCE = 6
THRESH=10
$end

$solvent
dielectric 4.90
$end
--------------------------------------------------------------

             Standard Nuclear Orientation (Angstroms)
    I     Atom           X                Y                Z
 ----------------------------------------------------------------
    1      C      -0.3343250000    -0.4854190000     0.0156070000
    2      C       0.0974750000     0.2624810000     1.1150070000
    3      C       0.7894750000     1.4609810000     0.7923070000
    4      H      -0.0869250000    -0.0569190000     2.1517070000
    5      C       0.8997750000     1.6520810000    -0.5968930000
    6      S       0.1368750000     0.3306810000    -1.4711930000
    7      C       1.3333750000     2.4029810000     1.8302070000
    8      H       1.1205750000     2.0343810000     2.8523070000
    9      H       0.8876750000     3.4157810000     1.7418070000
   10      H       2.4333750000     2.5233810000     1.7418070000
   11      C      -0.3343250000    -1.9261190000     0.0156070000
   12      H      -1.4143250000    -1.9263190000     0.0155070000
   13      H      -0.3344250000    -2.6299190000     0.8348070000
   14      H      -0.3343250000    -2.4450190000    -0.9314930000
   15      H       1.3744750000     2.4740810000    -1.1459930000
 ----------------------------------------------------------------

   10    -629.3991349351      5.69e-07  Convergence criterion met
 Total energy in the final basis set =     -629.3991349351
        RIMP2         total energy =      -630.5805349707 a.u.

                    Orbital Energies (a.u.)
 --------------------------------------------------------------

 Alpha MOs
 -- Occupied --
-91.9769 -11.2752 -11.2554 -11.2471 -11.2286 -11.2266 -11.2156  -8.9769
 -6.6579  -6.6573  -6.6567  -1.1616  -1.0546  -0.9962  -0.9422  -0.8824
 -0.7447  -0.7204  -0.6467  -0.5849  -0.5736  -0.5678  -0.5544  -0.5448
 -0.5114  -0.4937  -0.4578  -0.4508  -0.3374  -0.2864

          Ground-State Mulliken Net Atomic Charges

     Atom                 Charge (a.u.)
  ----------------------------------------
      1 C                     0.020206
      2 C                    -0.277358
      3 C                     0.048825
      4 H                     0.177424
      5 C                    -0.265760
      6 S                     0.004868
      7 C                    -0.270677
      8 H                     0.101423
      9 H                     0.107097
     10 H                     0.106304
     11 C                    -0.378766
     12 H                     0.132962
     13 H                     0.161104
     14 H                     0.139171
     15 H                     0.193174
  ----------------------------------------
  Sum of atomic charges =     0.000000

                    Cartesian Multipole Moments
 -----------------------------------------------------------------
    Charge (ESU x 10^10)
                -0.0000
    Dipole Moment (Debye)
         X       0.0107      Y      -0.4159      Z       1.4758
       Tot       1.5333
    Quadrupole Moments (Debye-Ang)
        XX     -51.9660     XY       5.3017     YY     -44.4851
        XZ       0.0503     YZ       0.0753     ZZ     -48.3298

 Total job time:  156.05s(wall), 154.91s(cpu)
        *  Thank you very much for using Q-Chem.  Have a nice day.  *
