 Q-Chem 5.4, Q-Chem, Inc., Pleasanton, CA (2021)
 Q-Chem 5.4.0 for Intel X86 EM64T Linux

User input:
--------------------------------------------------------------
$molecule
0 1
C	-0.230084	-0.535395	0.019522
C	0.065316	0.276105	1.118922
C	0.538616	1.576505	0.796222
H	-0.060784	-0.070395	2.155622
C	0.614116	1.783905	-0.592978
S	0.092216	0.350205	-1.467278
C	0.910716	2.598705	1.834122
H	0.765116	2.198705	2.856222
H	0.295916	3.518705	1.745722
H	1.973116	2.908305	1.745722
C	-0.230084	-1.976095	0.019522
H	-0.769984	-1.976295	-0.915878
H	-0.939584	-2.679895	0.429022
H	0.590116	-2.494995	-0.454078
H	0.938816	2.675905	-1.142078
$end

$rem
JOBTYPE		SP
EXCHANGE	HF
CORRELATION	pRIMP2
BASIS		cc-pvtz
METHOD		rimp2
AUX_BASIS	rimp2-cc-pvtz
SOLVENT_METHOD	PCM
PURECART	11111
SYMMETRY	false
MEM_TOTAL	110000
SCF_CONVERGENCE = 6
THRESH=10
$end

$solvent
dielectric 4.90
$end
--------------------------------------------------------------

   10    -629.4132613748      5.32e-07  Convergence criterion met
 Total energy in the final basis set =     -629.4132613748
        RIMP2         total energy =      -630.5922659459 a.u.
 Total job time:  157.61s(wall), 155.85s(cpu)
        *  Thank you very much for using Q-Chem.  Have a nice day.  *
 Q-Chem 5.4, Q-Chem, Inc., Pleasanton, CA (2021)
 Q-Chem 5.4.0 for Intel X86 EM64T Linux

User input:
--------------------------------------------------------------
$molecule
0 1
C	-0.230084	-0.535395	0.019522
C	0.065316	0.276105	1.118922
C	0.538616	1.576505	0.796222
H	-0.060784	-0.070395	2.155622
C	0.614116	1.783905	-0.592978
S	0.092216	0.350205	-1.467278
C	0.910716	2.598705	1.834122
H	0.765116	2.198705	2.856222
H	0.295916	3.518705	1.745722
H	1.973116	2.908305	1.745722
C	-0.230084	-1.976095	0.019522
H	-0.769984	-1.976295	-0.915878
H	-0.939584	-2.679895	0.429022
H	0.590116	-2.494995	-0.454078
H	0.938816	2.675905	-1.142078
$end

$rem
JOBTYPE		SP
EXCHANGE	HF
CORRELATION	pRIMP2
BASIS		cc-pvtz
METHOD		rimp2
AUX_BASIS	rimp2-cc-pvtz
SOLVENT_METHOD	PCM
PURECART	11111
SYMMETRY	false
MEM_TOTAL	110000
SCF_CONVERGENCE = 6
THRESH=10
$end

$solvent
dielectric 4.90
$end
--------------------------------------------------------------

             Standard Nuclear Orientation (Angstroms)
    I     Atom           X                Y                Z
 ----------------------------------------------------------------
    1      C      -0.2300840000    -0.5353950000     0.0195220000
    2      C       0.0653160000     0.2761050000     1.1189220000
    3      C       0.5386160000     1.5765050000     0.7962220000
    4      H      -0.0607840000    -0.0703950000     2.1556220000
    5      C       0.6141160000     1.7839050000    -0.5929780000
    6      S       0.0922160000     0.3502050000    -1.4672780000
    7      C       0.9107160000     2.5987050000     1.8341220000
    8      H       0.7651160000     2.1987050000     2.8562220000
    9      H       0.2959160000     3.5187050000     1.7457220000
   10      H       1.9731160000     2.9083050000     1.7457220000
   11      C      -0.2300840000    -1.9760950000     0.0195220000
   12      H      -0.7699840000    -1.9762950000    -0.9158780000
   13      H      -0.9395840000    -2.6798950000     0.4290220000
   14      H       0.5901160000    -2.4949950000    -0.4540780000
   15      H       0.9388160000     2.6759050000    -1.1420780000
 ----------------------------------------------------------------

   10    -629.4132613748      5.32e-07  Convergence criterion met
 Total energy in the final basis set =     -629.4132613748
        RIMP2         total energy =      -630.5922659459 a.u.

                    Orbital Energies (a.u.)
 --------------------------------------------------------------

 Alpha MOs
 -- Occupied --
-91.9801 -11.2736 -11.2588 -11.2471 -11.2295 -11.2268 -11.2157  -8.9800
 -6.6609  -6.6604  -6.6598  -1.1616  -1.0550  -0.9953  -0.9457  -0.8816
 -0.7476  -0.7192  -0.6472  -0.5912  -0.5749  -0.5665  -0.5533  -0.5469
 -0.5101  -0.4836  -0.4643  -0.4473  -0.3384  -0.2997

          Ground-State Mulliken Net Atomic Charges

     Atom                 Charge (a.u.)
  ----------------------------------------
      1 C                     0.020578
      2 C                    -0.253069
      3 C                     0.035456
      4 H                     0.179685
      5 C                    -0.251075
      6 S                    -0.001498
      7 C                    -0.272569
      8 H                     0.101783
      9 H                     0.106891
     10 H                     0.106586
     11 C                    -0.365964
     12 H                     0.113919
     13 H                     0.155199
     14 H                     0.129349
     15 H                     0.194729
  ----------------------------------------
  Sum of atomic charges =     0.000000

                    Cartesian Multipole Moments
 -----------------------------------------------------------------
    Charge (ESU x 10^10)
                -0.0000
    Dipole Moment (Debye)
         X       0.2378      Y      -0.0235      Z       0.9486
       Tot       0.9782
    Quadrupole Moments (Debye-Ang)
        XX     -52.7741     XY       3.6986     YY     -43.2317
        XZ      -0.1382     YZ       1.1572     ZZ     -48.7247

 Total job time:  157.51s(wall), 156.37s(cpu)
        *  Thank you very much for using Q-Chem.  Have a nice day.  *
