 Q-Chem 5.4, Q-Chem, Inc., Pleasanton, CA (2021)
 Q-Chem 5.4.0 for Intel X86 EM64T Linux

User input:
--------------------------------------------------------------
$molecule
0 1
C	-0.003576	-0.576312	0.011685
C	-0.003576	0.287288	1.111085
C	-0.003476	1.671188	0.788385
H	-0.003576	-0.081512	2.147785
C	-0.003476	1.891888	-0.600815
S	-0.003576	0.366088	-1.475115
C	-0.003476	2.758988	1.826285
H	-0.003476	2.333288	2.848385
H	-0.895876	3.413288	1.737885
H	0.888924	3.413188	1.737885
C	-0.003576	-2.017012	0.011685
H	0.690524	-2.016712	0.839085
H	-0.631176	-2.720812	0.538185
H	0.721924	-2.535912	-0.597115
H	-0.003476	2.841088	-1.149915
$end

$rem
JOBTYPE		SP
EXCHANGE	HF
CORRELATION	pRIMP2
BASIS		cc-pvtz
METHOD		rimp2
AUX_BASIS	rimp2-cc-pvtz
SOLVENT_METHOD	PCM
PURECART	11111
SYMMETRY	false
MEM_TOTAL	110000
SCF_CONVERGENCE = 6
THRESH=10
$end

$solvent
dielectric 4.90
$end
--------------------------------------------------------------

   10    -629.4240372560      5.57e-07  Convergence criterion met
 Total energy in the final basis set =     -629.4240372560
        RIMP2         total energy =      -630.6012926049 a.u.
 Total job time:  156.69s(wall), 155.03s(cpu)
        *  Thank you very much for using Q-Chem.  Have a nice day.  *
 Q-Chem 5.4, Q-Chem, Inc., Pleasanton, CA (2021)
 Q-Chem 5.4.0 for Intel X86 EM64T Linux

User input:
--------------------------------------------------------------
$molecule
0 1
C	-0.003576	-0.576312	0.011685
C	-0.003576	0.287288	1.111085
C	-0.003476	1.671188	0.788385
H	-0.003576	-0.081512	2.147785
C	-0.003476	1.891888	-0.600815
S	-0.003576	0.366088	-1.475115
C	-0.003476	2.758988	1.826285
H	-0.003476	2.333288	2.848385
H	-0.895876	3.413288	1.737885
H	0.888924	3.413188	1.737885
C	-0.003576	-2.017012	0.011685
H	0.690524	-2.016712	0.839085
H	-0.631176	-2.720812	0.538185
H	0.721924	-2.535912	-0.597115
H	-0.003476	2.841088	-1.149915
$end

$rem
JOBTYPE		SP
EXCHANGE	HF
CORRELATION	pRIMP2
BASIS		cc-pvtz
METHOD		rimp2
AUX_BASIS	rimp2-cc-pvtz
SOLVENT_METHOD	PCM
PURECART	11111
SYMMETRY	false
MEM_TOTAL	110000
SCF_CONVERGENCE = 6
THRESH=10
$end

$solvent
dielectric 4.90
$end
--------------------------------------------------------------

             Standard Nuclear Orientation (Angstroms)
    I     Atom           X                Y                Z
 ----------------------------------------------------------------
    1      C      -0.0035760000    -0.5763120000     0.0116850000
    2      C      -0.0035760000     0.2872880000     1.1110850000
    3      C      -0.0034760000     1.6711880000     0.7883850000
    4      H      -0.0035760000    -0.0815120000     2.1477850000
    5      C      -0.0034760000     1.8918880000    -0.6008150000
    6      S      -0.0035760000     0.3660880000    -1.4751150000
    7      C      -0.0034760000     2.7589880000     1.8262850000
    8      H      -0.0034760000     2.3332880000     2.8483850000
    9      H      -0.8958760000     3.4132880000     1.7378850000
   10      H       0.8889240000     3.4131880000     1.7378850000
   11      C      -0.0035760000    -2.0170120000     0.0116850000
   12      H       0.6905240000    -2.0167120000     0.8390850000
   13      H      -0.6311760000    -2.7208120000     0.5381850000
   14      H       0.7219240000    -2.5359120000    -0.5971150000
   15      H      -0.0034760000     2.8410880000    -1.1499150000
 ----------------------------------------------------------------

   10    -629.4240372560      5.57e-07  Convergence criterion met
 Total energy in the final basis set =     -629.4240372560
        RIMP2         total energy =      -630.6012926049 a.u.

                    Orbital Energies (a.u.)
 --------------------------------------------------------------

 Alpha MOs
 -- Occupied --
-91.9771 -11.2808 -11.2532 -11.2472 -11.2290 -11.2270 -11.2181  -8.9769
 -6.6579  -6.6573  -6.6568  -1.1604  -1.0546  -0.9989  -0.9403  -0.8838
 -0.7424  -0.7218  -0.6495  -0.5895  -0.5750  -0.5658  -0.5602  -0.5431
 -0.5091  -0.4885  -0.4668  -0.4466  -0.3373  -0.2968

          Ground-State Mulliken Net Atomic Charges

     Atom                 Charge (a.u.)
  ----------------------------------------
      1 C                     0.067730
      2 C                    -0.278698
      3 C                     0.035419
      4 H                     0.177041
      5 C                    -0.263141
      6 S                    -0.005243
      7 C                    -0.274845
      8 H                     0.101197
      9 H                     0.107295
     10 H                     0.107128
     11 C                    -0.382134
     12 H                     0.131419
     13 H                     0.147551
     14 H                     0.136545
     15 H                     0.192737
  ----------------------------------------
  Sum of atomic charges =     0.000000

                    Cartesian Multipole Moments
 -----------------------------------------------------------------
    Charge (ESU x 10^10)
                -0.0000
    Dipole Moment (Debye)
         X       0.4570      Y      -0.3445      Z       1.9675
       Tot       2.0491
    Quadrupole Moments (Debye-Ang)
        XX     -53.9811     XY      -0.9504     YY     -42.0881
        XZ      -0.2945     YZ      -0.8672     ZZ     -48.7434

 Total job time:  157.55s(wall), 156.48s(cpu)
        *  Thank you very much for using Q-Chem.  Have a nice day.  *
