 Q-Chem 5.4, Q-Chem, Inc., Pleasanton, CA (2021)
 Q-Chem 5.4.0 for Intel X86 EM64T Linux

User input:
--------------------------------------------------------------
$molecule
0 1
C	-0.063901	-0.573727	0.016151
C	0.011399	0.286573	1.115551
C	0.131999	1.665273	0.792851
H	-0.020701	-0.080827	2.152251
C	0.151299	1.885073	-0.596349
S	0.018299	0.365073	-1.470649
C	0.226899	2.748873	1.830751
H	0.189799	2.324773	2.852851
H	-0.605101	3.478373	1.742351
H	1.172899	3.322873	1.742351
C	-0.063901	-2.014427	0.016151
H	0.950999	-2.014627	-0.353149
H	-0.344001	-2.718227	-0.753649
H	0.259999	-2.533327	0.906151
H	0.233999	2.830673	-1.145449
$end

$rem
JOBTYPE		SP
EXCHANGE	HF
CORRELATION	pRIMP2
BASIS		cc-pvtz
METHOD		rimp2
AUX_BASIS	rimp2-cc-pvtz
SOLVENT_METHOD	PCM
PURECART	11111
SYMMETRY	false
MEM_TOTAL	110000
SCF_CONVERGENCE = 6
THRESH=10
$end

$solvent
dielectric 4.90
$end
--------------------------------------------------------------

             Standard Nuclear Orientation (Angstroms)
    I     Atom           X                Y                Z
 ----------------------------------------------------------------
    1      C      -0.0639010000    -0.5737270000     0.0161510000
    2      C       0.0113990000     0.2865730000     1.1155510000
    3      C       0.1319990000     1.6652730000     0.7928510000
    4      H      -0.0207010000    -0.0808270000     2.1522510000
    5      C       0.1512990000     1.8850730000    -0.5963490000
    6      S       0.0182990000     0.3650730000    -1.4706490000
    7      C       0.2268990000     2.7488730000     1.8307510000
    8      H       0.1897990000     2.3247730000     2.8528510000
    9      H      -0.6051010000     3.4783730000     1.7423510000
   10      H       1.1728990000     3.3228730000     1.7423510000
   11      C      -0.0639010000    -2.0144270000     0.0161510000
   12      H       0.9509990000    -2.0146270000    -0.3531490000
   13      H      -0.3440010000    -2.7182270000    -0.7536490000
   14      H       0.2599990000    -2.5333270000     0.9061510000
   15      H       0.2339990000     2.8306730000    -1.1454490000
 ----------------------------------------------------------------

   10    -629.4251816802      6.90e-07  Convergence criterion met
 Total energy in the final basis set =     -629.4251816802
        RIMP2         total energy =      -630.6002659079 a.u.

                    Orbital Energies (a.u.)
 --------------------------------------------------------------

 Alpha MOs
 -- Occupied --
-91.9773 -11.2851 -11.2501 -11.2469 -11.2265 -11.2244 -11.2221  -8.9773
 -6.6583  -6.6578  -6.6572  -1.1606  -1.0564  -0.9968  -0.9431  -0.8823
 -0.7449  -0.7185  -0.6478  -0.5902  -0.5765  -0.5685  -0.5504  -0.5474
 -0.5074  -0.4933  -0.4660  -0.4553  -0.3391  -0.2901

          Ground-State Mulliken Net Atomic Charges

     Atom                 Charge (a.u.)
  ----------------------------------------
      1 C                     0.062923
      2 C                    -0.306602
      3 C                     0.050197
      4 H                     0.179523
      5 C                    -0.274964
      6 S                    -0.006825
      7 C                    -0.273693
      8 H                     0.101276
      9 H                     0.107334
     10 H                     0.107408
     11 C                    -0.377335
     12 H                     0.139383
     13 H                     0.158741
     14 H                     0.139618
     15 H                     0.193017
  ----------------------------------------
  Sum of atomic charges =     0.000000

                    Cartesian Multipole Moments
 -----------------------------------------------------------------
    Charge (ESU x 10^10)
                -0.0000
    Dipole Moment (Debye)
         X       0.7842      Y      -0.6684      Z       1.1898
       Tot       1.5740
    Quadrupole Moments (Debye-Ang)
        XX     -54.3560     XY      -0.6252     YY     -41.7487
        XZ       0.2552     YZ       0.9674     ZZ     -48.6543

 Total job time:  158.74s(wall), 157.43s(cpu)
        *  Thank you very much for using Q-Chem.  Have a nice day.  *
