 Q-Chem 5.4, Q-Chem, Inc., Pleasanton, CA (2021)
 Q-Chem 5.4.0 for Intel X86 EM64T Linux

User input:
--------------------------------------------------------------
$molecule
0 1
C	-0.337248	-0.485421	0.010543
C	0.094552	0.262479	1.109943
C	0.786552	1.460979	0.787243
H	-0.089848	-0.056921	2.146643
C	0.896852	1.652079	-0.601957
S	0.133952	0.330679	-1.476257
C	1.330452	2.402979	1.825143
H	1.117652	2.034379	2.847243
H	0.884752	3.415779	1.736743
H	2.430452	2.523379	1.736743
C	-0.337248	-1.926121	0.010543
H	-0.877348	-1.925821	0.945743
H	-1.046648	-2.629921	-0.399057
H	0.482952	-2.445021	0.484143
H	1.371552	2.474079	-1.151057
$end

$rem
JOBTYPE		SP
EXCHANGE	HF
CORRELATION	pRIMP2
BASIS		cc-pvtz
METHOD		rimp2
AUX_BASIS	rimp2-cc-pvtz
SOLVENT_METHOD	PCM
PURECART	11111
SYMMETRY	false
MEM_TOTAL	110000
SCF_CONVERGENCE = 6
THRESH=10
$end

$solvent
dielectric 4.90
$end
--------------------------------------------------------------

   10    -629.4073827710      5.31e-07  Convergence criterion met
 Total energy in the final basis set =     -629.4073827710
        RIMP2         total energy =      -630.5893079009 a.u.
 Total job time:  156.45s(wall), 154.90s(cpu)
        *  Thank you very much for using Q-Chem.  Have a nice day.  *
 Q-Chem 5.4, Q-Chem, Inc., Pleasanton, CA (2021)
 Q-Chem 5.4.0 for Intel X86 EM64T Linux

User input:
--------------------------------------------------------------
$molecule
0 1
C	-0.337248	-0.485421	0.010543
C	0.094552	0.262479	1.109943
C	0.786552	1.460979	0.787243
H	-0.089848	-0.056921	2.146643
C	0.896852	1.652079	-0.601957
S	0.133952	0.330679	-1.476257
C	1.330452	2.402979	1.825143
H	1.117652	2.034379	2.847243
H	0.884752	3.415779	1.736743
H	2.430452	2.523379	1.736743
C	-0.337248	-1.926121	0.010543
H	-0.877348	-1.925821	0.945743
H	-1.046648	-2.629921	-0.399057
H	0.482952	-2.445021	0.484143
H	1.371552	2.474079	-1.151057
$end

$rem
JOBTYPE		SP
EXCHANGE	HF
CORRELATION	pRIMP2
BASIS		cc-pvtz
METHOD		rimp2
AUX_BASIS	rimp2-cc-pvtz
SOLVENT_METHOD	PCM
PURECART	11111
SYMMETRY	false
MEM_TOTAL	110000
SCF_CONVERGENCE = 6
THRESH=10
$end

$solvent
dielectric 4.90
$end
--------------------------------------------------------------

             Standard Nuclear Orientation (Angstroms)
    I     Atom           X                Y                Z
 ----------------------------------------------------------------
    1      C      -0.3372480000    -0.4854210000     0.0105430000
    2      C       0.0945520000     0.2624790000     1.1099430000
    3      C       0.7865520000     1.4609790000     0.7872430000
    4      H      -0.0898480000    -0.0569210000     2.1466430000
    5      C       0.8968520000     1.6520790000    -0.6019570000
    6      S       0.1339520000     0.3306790000    -1.4762570000
    7      C       1.3304520000     2.4029790000     1.8251430000
    8      H       1.1176520000     2.0343790000     2.8472430000
    9      H       0.8847520000     3.4157790000     1.7367430000
   10      H       2.4304520000     2.5233790000     1.7367430000
   11      C      -0.3372480000    -1.9261210000     0.0105430000
   12      H      -0.8773480000    -1.9258210000     0.9457430000
   13      H      -1.0466480000    -2.6299210000    -0.3990570000
   14      H       0.4829520000    -2.4450210000     0.4841430000
   15      H       1.3715520000     2.4740790000    -1.1510570000
 ----------------------------------------------------------------

   10    -629.4073827710      5.31e-07  Convergence criterion met
 Total energy in the final basis set =     -629.4073827710
        RIMP2         total energy =      -630.5893079009 a.u.

                    Orbital Energies (a.u.)
 --------------------------------------------------------------

 Alpha MOs
 -- Occupied --
-91.9734 -11.2715 -11.2612 -11.2479 -11.2371 -11.2278 -11.2147  -8.9738
 -6.6547  -6.6540  -6.6535  -1.1630  -1.0541  -0.9991  -0.9386  -0.8842
 -0.7431  -0.7247  -0.6461  -0.5909  -0.5786  -0.5658  -0.5586  -0.5425
 -0.5126  -0.4858  -0.4640  -0.4350  -0.3376  -0.3000

          Ground-State Mulliken Net Atomic Charges

     Atom                 Charge (a.u.)
  ----------------------------------------
      1 C                     0.021895
      2 C                    -0.263557
      3 C                     0.037371
      4 H                     0.178004
      5 C                    -0.244755
      6 S                    -0.002163
      7 C                    -0.270662
      8 H                     0.101294
      9 H                     0.106988
     10 H                     0.106794
     11 C                    -0.369825
     12 H                     0.119346
     13 H                     0.149351
     14 H                     0.137007
     15 H                     0.192913
  ----------------------------------------
  Sum of atomic charges =     0.000000

                    Cartesian Multipole Moments
 -----------------------------------------------------------------
    Charge (ESU x 10^10)
                -0.0000
    Dipole Moment (Debye)
         X       0.5420      Y      -0.0463      Z       2.1313
       Tot       2.1997
    Quadrupole Moments (Debye-Ang)
        XX     -51.5899     XY       4.7216     YY     -44.6454
        XZ       0.1974     YZ      -0.8609     ZZ     -48.7372

 Total job time:  155.98s(wall), 155.02s(cpu)
        *  Thank you very much for using Q-Chem.  Have a nice day.  *
