 Q-Chem 5.4, Q-Chem, Inc., Pleasanton, CA (2021)
 Q-Chem 5.4.0 for Intel X86 EM64T Linux

User input:
--------------------------------------------------------------
$molecule
0 1
C	-0.231735	-0.535395	0.019910
C	0.063665	0.276105	1.119310
C	0.536965	1.576505	0.796610
H	-0.062435	-0.070395	2.156010
C	0.612465	1.783905	-0.592590
S	0.090565	0.350205	-1.466890
C	0.909065	2.598705	1.834510
H	0.763465	2.198705	2.856610
H	0.294265	3.518705	1.746110
H	1.971465	2.908305	1.746110
C	-0.231735	-1.976095	0.019910
H	-0.419135	-1.976295	-1.043690
H	-1.038535	-2.679895	0.162110
H	0.700965	-2.494995	-0.144590
H	0.937165	2.675905	-1.141690
$end

$rem
JOBTYPE		SP
EXCHANGE	HF
CORRELATION	pRIMP2
BASIS		cc-pvtz
METHOD		rimp2
AUX_BASIS	rimp2-cc-pvtz
SOLVENT_METHOD	PCM
PURECART	11111
SYMMETRY	false
MEM_TOTAL	110000
SCF_CONVERGENCE = 6
THRESH=10
$end

$solvent
dielectric 4.90
$end
--------------------------------------------------------------

   10    -629.4131226046      5.26e-07  Convergence criterion met
 Total energy in the final basis set =     -629.4131226046
        RIMP2         total energy =      -630.5926318384 a.u.
 Total job time:  158.13s(wall), 156.62s(cpu)
        *  Thank you very much for using Q-Chem.  Have a nice day.  *
 Q-Chem 5.4, Q-Chem, Inc., Pleasanton, CA (2021)
 Q-Chem 5.4.0 for Intel X86 EM64T Linux

User input:
--------------------------------------------------------------
$molecule
0 1
C	-0.231735	-0.535395	0.019910
C	0.063665	0.276105	1.119310
C	0.536965	1.576505	0.796610
H	-0.062435	-0.070395	2.156010
C	0.612465	1.783905	-0.592590
S	0.090565	0.350205	-1.466890
C	0.909065	2.598705	1.834510
H	0.763465	2.198705	2.856610
H	0.294265	3.518705	1.746110
H	1.971465	2.908305	1.746110
C	-0.231735	-1.976095	0.019910
H	-0.419135	-1.976295	-1.043690
H	-1.038535	-2.679895	0.162110
H	0.700965	-2.494995	-0.144590
H	0.937165	2.675905	-1.141690
$end

$rem
JOBTYPE		SP
EXCHANGE	HF
CORRELATION	pRIMP2
BASIS		cc-pvtz
METHOD		rimp2
AUX_BASIS	rimp2-cc-pvtz
SOLVENT_METHOD	PCM
PURECART	11111
SYMMETRY	false
MEM_TOTAL	110000
SCF_CONVERGENCE = 6
THRESH=10
$end

$solvent
dielectric 4.90
$end
--------------------------------------------------------------

             Standard Nuclear Orientation (Angstroms)
    I     Atom           X                Y                Z
 ----------------------------------------------------------------
    1      C      -0.2317350000    -0.5353950000     0.0199100000
    2      C       0.0636650000     0.2761050000     1.1193100000
    3      C       0.5369650000     1.5765050000     0.7966100000
    4      H      -0.0624350000    -0.0703950000     2.1560100000
    5      C       0.6124650000     1.7839050000    -0.5925900000
    6      S       0.0905650000     0.3502050000    -1.4668900000
    7      C       0.9090650000     2.5987050000     1.8345100000
    8      H       0.7634650000     2.1987050000     2.8566100000
    9      H       0.2942650000     3.5187050000     1.7461100000
   10      H       1.9714650000     2.9083050000     1.7461100000
   11      C      -0.2317350000    -1.9760950000     0.0199100000
   12      H      -0.4191350000    -1.9762950000    -1.0436900000
   13      H      -1.0385350000    -2.6798950000     0.1621100000
   14      H       0.7009650000    -2.4949950000    -0.1445900000
   15      H       0.9371650000     2.6759050000    -1.1416900000
 ----------------------------------------------------------------

   10    -629.4131226046      5.26e-07  Convergence criterion met
 Total energy in the final basis set =     -629.4131226046
        RIMP2         total energy =      -630.5926318384 a.u.

                    Orbital Energies (a.u.)
 --------------------------------------------------------------

 Alpha MOs
 -- Occupied --
-91.9804 -11.2718 -11.2601 -11.2472 -11.2307 -11.2270 -11.2150  -8.9803
 -6.6612  -6.6606  -6.6600  -1.1620  -1.0551  -0.9950  -0.9461  -0.8813
 -0.7484  -0.7193  -0.6472  -0.5917  -0.5754  -0.5659  -0.5534  -0.5473
 -0.5101  -0.4824  -0.4649  -0.4437  -0.3379  -0.3037

          Ground-State Mulliken Net Atomic Charges

     Atom                 Charge (a.u.)
  ----------------------------------------
      1 C                     0.032728
      2 C                    -0.260315
      3 C                     0.042037
      4 H                     0.179158
      5 C                    -0.254543
      6 S                    -0.001498
      7 C                    -0.272223
      8 H                     0.101964
      9 H                     0.106806
     10 H                     0.106499
     11 C                    -0.362645
     12 H                     0.110955
     13 H                     0.149078
     14 H                     0.126747
     15 H                     0.195252
  ----------------------------------------
  Sum of atomic charges =     0.000000

                    Cartesian Multipole Moments
 -----------------------------------------------------------------
    Charge (ESU x 10^10)
                -0.0000
    Dipole Moment (Debye)
         X       0.4778      Y       0.0878      Z       0.8939
       Tot       1.0174
    Quadrupole Moments (Debye-Ang)
        XX     -52.7160     XY       3.2310     YY     -43.3538
        XZ       0.0632     YZ       1.3366     ZZ     -48.7661

 Total job time:  156.11s(wall), 155.17s(cpu)
        *  Thank you very much for using Q-Chem.  Have a nice day.  *
