 Q-Chem 5.4, Q-Chem, Inc., Pleasanton, CA (2021)
 Q-Chem 5.4.0 for Intel X86 EM64T Linux

User input:
--------------------------------------------------------------
$molecule
0 1
C	-0.586063	-0.237129	0.019710
C	0.161837	0.194671	1.119110
C	1.360337	0.886571	0.796410
H	-0.157563	0.010271	2.155810
C	1.551437	0.996871	-0.592790
S	0.230137	0.234071	-1.467090
C	2.302437	1.430471	1.834310
H	1.933737	1.217571	2.856410
H	2.422837	2.530371	1.745910
H	3.315237	0.984671	1.745910
C	-0.586063	-1.677829	0.019710
H	-0.773463	-1.677529	-1.043890
H	0.220737	-2.381629	-0.122490
H	-1.518763	-2.196729	0.184210
H	2.373537	1.471471	-1.141890
$end

$rem
JOBTYPE		SP
EXCHANGE	HF
CORRELATION	pRIMP2
BASIS		cc-pvtz
METHOD		rimp2
AUX_BASIS	rimp2-cc-pvtz
SOLVENT_METHOD	PCM
PURECART	11111
SYMMETRY	false
MEM_TOTAL	110000
SCF_CONVERGENCE = 6
THRESH=10
$end

$solvent
dielectric 4.90
$end
--------------------------------------------------------------

             Standard Nuclear Orientation (Angstroms)
    I     Atom           X                Y                Z
 ----------------------------------------------------------------
    1      C      -0.5860630000    -0.2371290000     0.0197100000
    2      C       0.1618370000     0.1946710000     1.1191100000
    3      C       1.3603370000     0.8865710000     0.7964100000
    4      H      -0.1575630000     0.0102710000     2.1558100000
    5      C       1.5514370000     0.9968710000    -0.5927900000
    6      S       0.2301370000     0.2340710000    -1.4670900000
    7      C       2.3024370000     1.4304710000     1.8343100000
    8      H       1.9337370000     1.2175710000     2.8564100000
    9      H       2.4228370000     2.5303710000     1.7459100000
   10      H       3.3152370000     0.9846710000     1.7459100000
   11      C      -0.5860630000    -1.6778290000     0.0197100000
   12      H      -0.7734630000    -1.6775290000    -1.0438900000
   13      H       0.2207370000    -2.3816290000    -0.1224900000
   14      H      -1.5187630000    -2.1967290000     0.1842100000
   15      H       2.3735370000     1.4714710000    -1.1418900000
 ----------------------------------------------------------------

   11    -629.3431109459      4.18e-07  Convergence criterion met
 Total energy in the final basis set =     -629.3431109459
        RIMP2         total energy =      -630.5334551911 a.u.

                    Orbital Energies (a.u.)
 --------------------------------------------------------------

 Alpha MOs
 -- Occupied --
-91.9748 -11.2856 -11.2546 -11.2477 -11.2381 -11.2286 -11.2064  -8.9760
 -6.6568  -6.6558  -6.6556  -1.1745  -1.0572  -0.9958  -0.9441  -0.8782
 -0.7564  -0.7288  -0.6443  -0.5893  -0.5809  -0.5707  -0.5511  -0.5461
 -0.5203  -0.4673  -0.4451  -0.4388  -0.3290  -0.3079

          Ground-State Mulliken Net Atomic Charges

     Atom                 Charge (a.u.)
  ----------------------------------------
      1 C                    -0.122418
      2 C                    -0.101809
      3 C                    -0.022282
      4 H                     0.185144
      5 C                    -0.177799
      6 S                     0.010091
      7 C                    -0.268747
      8 H                     0.102211
      9 H                     0.106509
     10 H                     0.103400
     11 C                    -0.361132
     12 H                     0.109813
     13 H                     0.128947
     14 H                     0.108979
     15 H                     0.199093
  ----------------------------------------
  Sum of atomic charges =     0.000000

                    Cartesian Multipole Moments
 -----------------------------------------------------------------
    Charge (ESU x 10^10)
                -0.0000
    Dipole Moment (Debye)
         X       2.4869      Y       0.3559      Z       1.2052
       Tot       2.7864
    Quadrupole Moments (Debye-Ang)
        XX     -47.8279     XY       4.3223     YY     -50.2078
        XZ      -0.2459     YZ       0.9849     ZZ     -47.8355

 Total job time:  176.66s(wall), 175.06s(cpu)
        *  Thank you very much for using Q-Chem.  Have a nice day.  *
