 Q-Chem 5.4, Q-Chem, Inc., Pleasanton, CA (2021)
 Q-Chem 5.4.0 for Intel X86 EM64T Linux

User input:
--------------------------------------------------------------
$molecule
0 1
C	-0.343263	-0.485421	0.012353
C	0.088537	0.262479	1.111753
C	0.780537	1.460979	0.789053
H	-0.095863	-0.056921	2.148453
C	0.890837	1.652079	-0.600147
S	0.127937	0.330679	-1.474447
C	1.324437	2.402979	1.826953
H	1.111637	2.034379	2.849053
H	0.878737	3.415779	1.738553
H	2.424437	2.523379	1.738553
C	-0.343263	-1.926121	0.012353
H	0.484037	-1.925821	0.706653
H	-0.869863	-2.629921	0.639853
H	0.265537	-2.445021	-0.713247
H	1.365537	2.474079	-1.149247
$end

$rem
JOBTYPE		SP
EXCHANGE	HF
CORRELATION	pRIMP2
BASIS		cc-pvtz
METHOD		rimp2
AUX_BASIS	rimp2-cc-pvtz
SOLVENT_METHOD	PCM
PURECART	11111
SYMMETRY	false
MEM_TOTAL	110000
SCF_CONVERGENCE = 6
THRESH=10
$end

$solvent
dielectric 4.90
$end
--------------------------------------------------------------

   10    -629.4030257728      5.40e-07  Convergence criterion met
 Total energy in the final basis set =     -629.4030257728
        RIMP2         total energy =      -630.5843972925 a.u.
 Total job time:  159.85s(wall), 159.22s(cpu)
        *  Thank you very much for using Q-Chem.  Have a nice day.  *
 Q-Chem 5.4, Q-Chem, Inc., Pleasanton, CA (2021)
 Q-Chem 5.4.0 for Intel X86 EM64T Linux

User input:
--------------------------------------------------------------
$molecule
0 1
C	-0.343263	-0.485421	0.012353
C	0.088537	0.262479	1.111753
C	0.780537	1.460979	0.789053
H	-0.095863	-0.056921	2.148453
C	0.890837	1.652079	-0.600147
S	0.127937	0.330679	-1.474447
C	1.324437	2.402979	1.826953
H	1.111637	2.034379	2.849053
H	0.878737	3.415779	1.738553
H	2.424437	2.523379	1.738553
C	-0.343263	-1.926121	0.012353
H	0.484037	-1.925821	0.706653
H	-0.869863	-2.629921	0.639853
H	0.265537	-2.445021	-0.713247
H	1.365537	2.474079	-1.149247
$end

$rem
JOBTYPE		SP
EXCHANGE	HF
CORRELATION	pRIMP2
BASIS		cc-pvtz
METHOD		rimp2
AUX_BASIS	rimp2-cc-pvtz
SOLVENT_METHOD	PCM
PURECART	11111
SYMMETRY	false
MEM_TOTAL	110000
SCF_CONVERGENCE = 6
THRESH=10
$end

$solvent
dielectric 4.90
$end
--------------------------------------------------------------

             Standard Nuclear Orientation (Angstroms)
    I     Atom           X                Y                Z
 ----------------------------------------------------------------
    1      C      -0.3432630000    -0.4854210000     0.0123530000
    2      C       0.0885370000     0.2624790000     1.1117530000
    3      C       0.7805370000     1.4609790000     0.7890530000
    4      H      -0.0958630000    -0.0569210000     2.1484530000
    5      C       0.8908370000     1.6520790000    -0.6001470000
    6      S       0.1279370000     0.3306790000    -1.4744470000
    7      C       1.3244370000     2.4029790000     1.8269530000
    8      H       1.1116370000     2.0343790000     2.8490530000
    9      H       0.8787370000     3.4157790000     1.7385530000
   10      H       2.4244370000     2.5233790000     1.7385530000
   11      C      -0.3432630000    -1.9261210000     0.0123530000
   12      H       0.4840370000    -1.9258210000     0.7066530000
   13      H      -0.8698630000    -2.6299210000     0.6398530000
   14      H       0.2655370000    -2.4450210000    -0.7132470000
   15      H       1.3655370000     2.4740790000    -1.1492470000
 ----------------------------------------------------------------

   10    -629.4030257728      5.40e-07  Convergence criterion met
 Total energy in the final basis set =     -629.4030257728
        RIMP2         total energy =      -630.5843972925 a.u.

                    Orbital Energies (a.u.)
 --------------------------------------------------------------

 Alpha MOs
 -- Occupied --
-91.9788 -11.2773 -11.2554 -11.2477 -11.2284 -11.2272 -11.2157  -8.9786
 -6.6595  -6.6590  -6.6584  -1.1639  -1.0553  -0.9983  -0.9383  -0.8825
 -0.7434  -0.7229  -0.6473  -0.5895  -0.5748  -0.5684  -0.5570  -0.5438
 -0.5097  -0.4818  -0.4662  -0.4524  -0.3357  -0.2917

          Ground-State Mulliken Net Atomic Charges

     Atom                 Charge (a.u.)
  ----------------------------------------
      1 C                     0.022906
      2 C                    -0.254910
      3 C                     0.032410
      4 H                     0.174861
      5 C                    -0.261159
      6 S                     0.006503
      7 C                    -0.271043
      8 H                     0.101417
      9 H                     0.107455
     10 H                     0.105969
     11 C                    -0.388722
     12 H                     0.146672
     13 H                     0.146479
     14 H                     0.138239
     15 H                     0.192922
  ----------------------------------------
  Sum of atomic charges =     0.000000

                    Cartesian Multipole Moments
 -----------------------------------------------------------------
    Charge (ESU x 10^10)
                -0.0000
    Dipole Moment (Debye)
         X       1.2578      Y      -0.3567      Z       1.8742
       Tot       2.2851
    Quadrupole Moments (Debye-Ang)
        XX     -52.4930     XY       2.7750     YY     -44.7686
        XZ      -0.2590     YZ      -0.7814     ZZ     -48.4108

 Total job time:  158.92s(wall), 157.77s(cpu)
        *  Thank you very much for using Q-Chem.  Have a nice day.  *
