 Q-Chem 5.4, Q-Chem, Inc., Pleasanton, CA (2021)
 Q-Chem 5.4.0 for Intel X86 EM64T Linux

User input:
--------------------------------------------------------------
$molecule
0 1
C	-0.583556	-0.237127	0.017956
C	0.164344	0.194673	1.117356
C	1.362844	0.886573	0.794656
H	-0.155056	0.010273	2.154056
C	1.553944	0.996873	-0.594544
S	0.232644	0.234073	-1.468844
C	2.304944	1.430473	1.832556
H	1.936244	1.217573	2.854656
H	2.425344	2.530373	1.744156
H	3.317744	0.984673	1.744156
C	-0.583556	-1.677827	0.017956
H	-1.518756	-1.678027	-0.522144
H	-0.993156	-2.381627	0.727356
H	-0.109956	-2.196727	-0.802244
H	2.376044	1.471473	-1.143644
$end

$rem
JOBTYPE		SP
EXCHANGE	HF
CORRELATION	pRIMP2
BASIS		cc-pvtz
METHOD		rimp2
AUX_BASIS	rimp2-cc-pvtz
SOLVENT_METHOD	PCM
PURECART	11111
SYMMETRY	false
MEM_TOTAL	110000
SCF_CONVERGENCE = 6
THRESH=10
$end

$solvent
dielectric 4.90
$end
--------------------------------------------------------------

             Standard Nuclear Orientation (Angstroms)
    I     Atom           X                Y                Z
 ----------------------------------------------------------------
    1      C      -0.5835560000    -0.2371270000     0.0179560000
    2      C       0.1643440000     0.1946730000     1.1173560000
    3      C       1.3628440000     0.8865730000     0.7946560000
    4      H      -0.1550560000     0.0102730000     2.1540560000
    5      C       1.5539440000     0.9968730000    -0.5945440000
    6      S       0.2326440000     0.2340730000    -1.4688440000
    7      C       2.3049440000     1.4304730000     1.8325560000
    8      H       1.9362440000     1.2175730000     2.8546560000
    9      H       2.4253440000     2.5303730000     1.7441560000
   10      H       3.3177440000     0.9846730000     1.7441560000
   11      C      -0.5835560000    -1.6778270000     0.0179560000
   12      H      -1.5187560000    -1.6780270000    -0.5221440000
   13      H      -0.9931560000    -2.3816270000     0.7273560000
   14      H      -0.1099560000    -2.1967270000    -0.8022440000
   15      H       2.3760440000     1.4714730000    -1.1436440000
 ----------------------------------------------------------------

   11    -629.3379820518      6.13e-07  Convergence criterion met
 Total energy in the final basis set =     -629.3379820518
        RIMP2         total energy =      -630.5293492268 a.u.

                    Orbital Energies (a.u.)
 --------------------------------------------------------------

 Alpha MOs
 -- Occupied --
-91.9750 -11.2824 -11.2510 -11.2484 -11.2404 -11.2284 -11.2045  -8.9758
 -6.6567  -6.6558  -6.6556  -1.1723  -1.0554  -0.9963  -0.9421  -0.8801
 -0.7529  -0.7289  -0.6416  -0.5913  -0.5770  -0.5687  -0.5519  -0.5437
 -0.5176  -0.4824  -0.4567  -0.4270  -0.3346  -0.2888

          Ground-State Mulliken Net Atomic Charges

     Atom                 Charge (a.u.)
  ----------------------------------------
      1 C                    -0.125973
      2 C                    -0.099710
      3 C                    -0.022069
      4 H                     0.186219
      5 C                    -0.179251
      6 S                     0.009773
      7 C                    -0.269039
      8 H                     0.101813
      9 H                     0.106428
     10 H                     0.103803
     11 C                    -0.396468
     12 H                     0.118730
     13 H                     0.139930
     14 H                     0.126911
     15 H                     0.198903
  ----------------------------------------
  Sum of atomic charges =     0.000000

                    Cartesian Multipole Moments
 -----------------------------------------------------------------
    Charge (ESU x 10^10)
                -0.0000
    Dipole Moment (Debye)
         X       2.0256      Y       0.1619      Z       1.4771
       Tot       2.5122
    Quadrupole Moments (Debye-Ang)
        XX     -47.7866     XY       5.2227     YY     -50.1058
        XZ      -0.6400     YZ       0.3062     ZZ     -47.5785

 Total job time:  175.21s(wall), 174.01s(cpu)
        *  Thank you very much for using Q-Chem.  Have a nice day.  *
