 Q-Chem 5.4, Q-Chem, Inc., Pleasanton, CA (2021)
 Q-Chem 5.4.0 for Intel X86 EM64T Linux

User input:
--------------------------------------------------------------
$molecule
0 1
C	-0.519366	-0.333972	0.019910
C	0.142234	0.221128	1.119310
C	1.202334	1.110628	0.796610
H	-0.140266	-0.015972	2.156010
C	1.371434	1.252428	-0.592590
S	0.202534	0.271728	-1.466890
C	2.035634	1.809828	1.834510
H	1.709534	1.536228	2.856610
H	1.963234	2.914028	1.746110
H	3.110434	1.546728	1.746110
C	-0.519366	-1.774672	0.019910
H	-0.706766	-1.774872	-1.043690
H	-1.326166	-2.478472	0.162110
H	0.413334	-2.293572	-0.144590
H	2.098534	1.862628	-1.141690
$end

$rem
JOBTYPE		SP
EXCHANGE	HF
CORRELATION	pRIMP2
BASIS		cc-pvtz
METHOD		rimp2
AUX_BASIS	rimp2-cc-pvtz
SOLVENT_METHOD	PCM
PURECART	11111
SYMMETRY	false
MEM_TOTAL	110000
SCF_CONVERGENCE = 6
THRESH=10
$end

$solvent
dielectric 4.90
$end
--------------------------------------------------------------

             Standard Nuclear Orientation (Angstroms)
    I     Atom           X                Y                Z
 ----------------------------------------------------------------
    1      C      -0.5193660000    -0.3339720000     0.0199100000
    2      C       0.1422340000     0.2211280000     1.1193100000
    3      C       1.2023340000     1.1106280000     0.7966100000
    4      H      -0.1402660000    -0.0159720000     2.1560100000
    5      C       1.3714340000     1.2524280000    -0.5925900000
    6      S       0.2025340000     0.2717280000    -1.4668900000
    7      C       2.0356340000     1.8098280000     1.8345100000
    8      H       1.7095340000     1.5362280000     2.8566100000
    9      H       1.9632340000     2.9140280000     1.7461100000
   10      H       3.1104340000     1.5467280000     1.7461100000
   11      C      -0.5193660000    -1.7746720000     0.0199100000
   12      H      -0.7067660000    -1.7748720000    -1.0436900000
   13      H      -1.3261660000    -2.4784720000     0.1621100000
   14      H       0.4133340000    -2.2935720000    -0.1445900000
   15      H       2.0985340000     1.8626280000    -1.1416900000
 ----------------------------------------------------------------

   10    -629.3696772859      9.06e-07  Convergence criterion met
 Total energy in the final basis set =     -629.3696772859
        RIMP2         total energy =      -630.5573438866 a.u.

                    Orbital Energies (a.u.)
 --------------------------------------------------------------

 Alpha MOs
 -- Occupied --
-91.9769 -11.2758 -11.2521 -11.2479 -11.2441 -11.2280 -11.2095  -8.9776
 -6.6584  -6.6577  -6.6573  -1.1697  -1.0563  -0.9947  -0.9446  -0.8792
 -0.7531  -0.7248  -0.6439  -0.5926  -0.5783  -0.5669  -0.5514  -0.5473
 -0.5159  -0.4675  -0.4594  -0.4405  -0.3333  -0.3055

          Ground-State Mulliken Net Atomic Charges

     Atom                 Charge (a.u.)
  ----------------------------------------
      1 C                    -0.066732
      2 C                    -0.162083
      3 C                     0.006824
      4 H                     0.180181
      5 C                    -0.209407
      6 S                     0.006587
      7 C                    -0.269457
      8 H                     0.102090
      9 H                     0.106724
     10 H                     0.104505
     11 C                    -0.359082
     12 H                     0.108975
     13 H                     0.132269
     14 H                     0.120808
     15 H                     0.197799
  ----------------------------------------
  Sum of atomic charges =     0.000000

                    Cartesian Multipole Moments
 -----------------------------------------------------------------
    Charge (ESU x 10^10)
                -0.0000
    Dipole Moment (Debye)
         X       1.8038      Y       0.3077      Z       1.0932
       Tot       2.1315
    Quadrupole Moments (Debye-Ang)
        XX     -49.0254     XY       4.9952     YY     -48.3037
        XZ      -0.0337     YZ       0.9673     ZZ     -48.2089

 Total job time:  159.86s(wall), 158.70s(cpu)
        *  Thank you very much for using Q-Chem.  Have a nice day.  *
