 Q-Chem 5.4, Q-Chem, Inc., Pleasanton, CA (2021)
 Q-Chem 5.4.0 for Intel X86 EM64T Linux

User input:
--------------------------------------------------------------
$molecule
0 1
C	-0.340586	-0.485419	0.019710
C	0.091214	0.262481	1.119110
C	0.783214	1.460981	0.796410
H	-0.093186	-0.056919	2.155810
C	0.893514	1.652081	-0.592790
S	0.130614	0.330681	-1.467090
C	1.327114	2.402981	1.834310
H	1.114314	2.034381	2.856410
H	0.881414	3.415781	1.745910
H	2.427114	2.523381	1.745910
C	-0.340586	-1.926119	0.019710
H	-0.152886	-1.926319	-1.043890
H	-1.147286	-2.629919	-0.122590
H	0.592114	-2.445019	0.184210
H	1.368214	2.474081	-1.141890
$end

$rem
JOBTYPE		SP
EXCHANGE	HF
CORRELATION	pRIMP2
BASIS		cc-pvtz
METHOD		rimp2
AUX_BASIS	rimp2-cc-pvtz
SOLVENT_METHOD	PCM
PURECART	11111
SYMMETRY	false
MEM_TOTAL	110000
SCF_CONVERGENCE = 6
THRESH=10
$end

$solvent
dielectric 4.90
$end
--------------------------------------------------------------

   10    -629.4021965483      5.44e-07  Convergence criterion met
 Total energy in the final basis set =     -629.4021965483
        RIMP2         total energy =      -630.5839343801 a.u.
 Total job time:  158.43s(wall), 157.40s(cpu)
        *  Thank you very much for using Q-Chem.  Have a nice day.  *
 Q-Chem 5.4, Q-Chem, Inc., Pleasanton, CA (2021)
 Q-Chem 5.4.0 for Intel X86 EM64T Linux

User input:
--------------------------------------------------------------
$molecule
0 1
C	-0.340586	-0.485419	0.019710
C	0.091214	0.262481	1.119110
C	0.783214	1.460981	0.796410
H	-0.093186	-0.056919	2.155810
C	0.893514	1.652081	-0.592790
S	0.130614	0.330681	-1.467090
C	1.327114	2.402981	1.834310
H	1.114314	2.034381	2.856410
H	0.881414	3.415781	1.745910
H	2.427114	2.523381	1.745910
C	-0.340586	-1.926119	0.019710
H	-0.152886	-1.926319	-1.043890
H	-1.147286	-2.629919	-0.122590
H	0.592114	-2.445019	0.184210
H	1.368214	2.474081	-1.141890
$end

$rem
JOBTYPE		SP
EXCHANGE	HF
CORRELATION	pRIMP2
BASIS		cc-pvtz
METHOD		rimp2
AUX_BASIS	rimp2-cc-pvtz
SOLVENT_METHOD	PCM
PURECART	11111
SYMMETRY	false
MEM_TOTAL	110000
SCF_CONVERGENCE = 6
THRESH=10
$end

$solvent
dielectric 4.90
$end
--------------------------------------------------------------

             Standard Nuclear Orientation (Angstroms)
    I     Atom           X                Y                Z
 ----------------------------------------------------------------
    1      C      -0.3405860000    -0.4854190000     0.0197100000
    2      C       0.0912140000     0.2624810000     1.1191100000
    3      C       0.7832140000     1.4609810000     0.7964100000
    4      H      -0.0931860000    -0.0569190000     2.1558100000
    5      C       0.8935140000     1.6520810000    -0.5927900000
    6      S       0.1306140000     0.3306810000    -1.4670900000
    7      C       1.3271140000     2.4029810000     1.8343100000
    8      H       1.1143140000     2.0343810000     2.8564100000
    9      H       0.8814140000     3.4157810000     1.7459100000
   10      H       2.4271140000     2.5233810000     1.7459100000
   11      C      -0.3405860000    -1.9261190000     0.0197100000
   12      H      -0.1528860000    -1.9263190000    -1.0438900000
   13      H      -1.1472860000    -2.6299190000    -0.1225900000
   14      H       0.5921140000    -2.4450190000     0.1842100000
   15      H       1.3682140000     2.4740810000    -1.1418900000
 ----------------------------------------------------------------

   10    -629.4021965483      5.44e-07  Convergence criterion met
 Total energy in the final basis set =     -629.4021965483
        RIMP2         total energy =      -630.5839343801 a.u.

                    Orbital Energies (a.u.)
 --------------------------------------------------------------

 Alpha MOs
 -- Occupied --
-91.9782 -11.2683 -11.2629 -11.2471 -11.2341 -11.2272 -11.2131  -8.9784
 -6.6593  -6.6587  -6.6582  -1.1639  -1.0555  -0.9945  -0.9454  -0.8805
 -0.7495  -0.7204  -0.6461  -0.5912  -0.5767  -0.5657  -0.5524  -0.5477
 -0.5114  -0.4798  -0.4643  -0.4420  -0.3368  -0.3034

          Ground-State Mulliken Net Atomic Charges

     Atom                 Charge (a.u.)
  ----------------------------------------
      1 C                     0.018389
      2 C                    -0.254376
      3 C                     0.045269
      4 H                     0.178277
      5 C                    -0.248084
      6 S                    -0.002892
      7 C                    -0.271181
      8 H                     0.101966
      9 H                     0.107073
     10 H                     0.105968
     11 C                    -0.365875
     12 H                     0.117893
     13 H                     0.139572
     14 H                     0.132390
     15 H                     0.195610
  ----------------------------------------
  Sum of atomic charges =     0.000000

                    Cartesian Multipole Moments
 -----------------------------------------------------------------
    Charge (ESU x 10^10)
                -0.0000
    Dipole Moment (Debye)
         X       1.0396      Y       0.1260      Z       0.9331
       Tot       1.4026
    Quadrupole Moments (Debye-Ang)
        XX     -51.8007     XY       3.7160     YY     -44.8309
        XZ       0.3215     YZ       1.3752     ZZ     -48.6088

 Total job time:  158.56s(wall), 155.85s(cpu)
        *  Thank you very much for using Q-Chem.  Have a nice day.  *
