 Q-Chem 5.4, Q-Chem, Inc., Pleasanton, CA (2021)
 Q-Chem 5.4.0 for Intel X86 EM64T Linux

User input:
--------------------------------------------------------------
$molecule
0 1
C	-0.121898	-0.566010	0.012353
C	0.028102	0.284490	1.111753
C	0.268402	1.647390	0.789053
H	-0.035998	-0.078710	2.148453
C	0.306802	1.864690	-0.600147
S	0.041802	0.362090	-1.474447
C	0.457302	2.718590	1.826953
H	0.383402	2.299390	2.849053
H	-0.307898	3.517890	1.738553
H	1.449802	3.207890	1.738553
C	-0.121898	-2.006710	0.012353
H	0.705402	-2.006410	0.706653
H	-0.648498	-2.710510	0.639853
H	0.486902	-2.525610	-0.713247
H	0.471602	2.799390	-1.149247
$end

$rem
JOBTYPE		SP
EXCHANGE	HF
CORRELATION	pRIMP2
BASIS		cc-pvtz
METHOD		rimp2
AUX_BASIS	rimp2-cc-pvtz
SOLVENT_METHOD	PCM
PURECART	11111
SYMMETRY	false
MEM_TOTAL	110000
SCF_CONVERGENCE = 6
THRESH=10
$end

$solvent
dielectric 4.90
$end
--------------------------------------------------------------

   10    -629.4217239509      5.96e-07  Convergence criterion met
 Total energy in the final basis set =     -629.4217239509
        RIMP2         total energy =      -630.5988760491 a.u.
 Total job time:  158.86s(wall), 156.24s(cpu)
        *  Thank you very much for using Q-Chem.  Have a nice day.  *
 Q-Chem 5.4, Q-Chem, Inc., Pleasanton, CA (2021)
 Q-Chem 5.4.0 for Intel X86 EM64T Linux

User input:
--------------------------------------------------------------
$molecule
0 1
C	-0.121898	-0.566010	0.012353
C	0.028102	0.284490	1.111753
C	0.268402	1.647390	0.789053
H	-0.035998	-0.078710	2.148453
C	0.306802	1.864690	-0.600147
S	0.041802	0.362090	-1.474447
C	0.457302	2.718590	1.826953
H	0.383402	2.299390	2.849053
H	-0.307898	3.517890	1.738553
H	1.449802	3.207890	1.738553
C	-0.121898	-2.006710	0.012353
H	0.705402	-2.006410	0.706653
H	-0.648498	-2.710510	0.639853
H	0.486902	-2.525610	-0.713247
H	0.471602	2.799390	-1.149247
$end

$rem
JOBTYPE		SP
EXCHANGE	HF
CORRELATION	pRIMP2
BASIS		cc-pvtz
METHOD		rimp2
AUX_BASIS	rimp2-cc-pvtz
SOLVENT_METHOD	PCM
PURECART	11111
SYMMETRY	false
MEM_TOTAL	110000
SCF_CONVERGENCE = 6
THRESH=10
$end

$solvent
dielectric 4.90
$end
--------------------------------------------------------------

             Standard Nuclear Orientation (Angstroms)
    I     Atom           X                Y                Z
 ----------------------------------------------------------------
    1      C      -0.1218980000    -0.5660100000     0.0123530000
    2      C       0.0281020000     0.2844900000     1.1117530000
    3      C       0.2684020000     1.6473900000     0.7890530000
    4      H      -0.0359980000    -0.0787100000     2.1484530000
    5      C       0.3068020000     1.8646900000    -0.6001470000
    6      S       0.0418020000     0.3620900000    -1.4744470000
    7      C       0.4573020000     2.7185900000     1.8269530000
    8      H       0.3834020000     2.2993900000     2.8490530000
    9      H      -0.3078980000     3.5178900000     1.7385530000
   10      H       1.4498020000     3.2078900000     1.7385530000
   11      C      -0.1218980000    -2.0067100000     0.0123530000
   12      H       0.7054020000    -2.0064100000     0.7066530000
   13      H      -0.6484980000    -2.7105100000     0.6398530000
   14      H       0.4869020000    -2.5256100000    -0.7132470000
   15      H       0.4716020000     2.7993900000    -1.1492470000
 ----------------------------------------------------------------

   10    -629.4217239509      5.96e-07  Convergence criterion met
 Total energy in the final basis set =     -629.4217239509
        RIMP2         total energy =      -630.5988760491 a.u.

                    Orbital Energies (a.u.)
 --------------------------------------------------------------

 Alpha MOs
 -- Occupied --
-91.9784 -11.2825 -11.2513 -11.2472 -11.2268 -11.2261 -11.2189  -8.9781
 -6.6591  -6.6585  -6.6580  -1.1608  -1.0552  -0.9985  -0.9401  -0.8833
 -0.7426  -0.7210  -0.6493  -0.5892  -0.5739  -0.5673  -0.5588  -0.5437
 -0.5083  -0.4882  -0.4672  -0.4512  -0.3370  -0.2934

          Ground-State Mulliken Net Atomic Charges

     Atom                 Charge (a.u.)
  ----------------------------------------
      1 C                     0.062135
      2 C                    -0.281133
      3 C                     0.038394
      4 H                     0.175386
      5 C                    -0.269843
      6 S                    -0.001102
      7 C                    -0.273990
      8 H                     0.101184
      9 H                     0.107314
     10 H                     0.107006
     11 C                    -0.387929
     12 H                     0.140521
     13 H                     0.153306
     14 H                     0.136112
     15 H                     0.192640
  ----------------------------------------
  Sum of atomic charges =     0.000000

                    Cartesian Multipole Moments
 -----------------------------------------------------------------
    Charge (ESU x 10^10)
                -0.0000
    Dipole Moment (Debye)
         X       0.7633      Y      -0.4902      Z       1.8618
       Tot       2.0711
    Quadrupole Moments (Debye-Ang)
        XX     -53.9940     XY       0.3626     YY     -42.3666
        XZ      -0.2529     YZ      -0.7220     ZZ     -48.6374

 Total job time:  156.35s(wall), 154.99s(cpu)
        *  Thank you very much for using Q-Chem.  Have a nice day.  *
