 Q-Chem 5.4, Q-Chem, Inc., Pleasanton, CA (2021)
 Q-Chem 5.4.0 for Intel X86 EM64T Linux

User input:
--------------------------------------------------------------
$molecule
0 1
C	-0.054783	-0.573727	0.017232
C	0.020517	0.286573	1.116632
C	0.141117	1.665273	0.793932
H	-0.011583	-0.080827	2.153332
C	0.160417	1.885073	-0.595268
S	0.027417	0.365073	-1.469568
C	0.236017	2.748873	1.831832
H	0.198917	2.324773	2.853932
H	-0.595983	3.478373	1.743432
H	1.182017	3.322873	1.743432
C	-0.054783	-2.014427	0.017232
H	-1.069583	-2.014627	-0.352268
H	-0.334983	-2.718227	0.787032
H	0.269117	-2.533327	-0.872768
H	0.243117	2.830673	-1.144368
$end

$rem
JOBTYPE		SP
EXCHANGE	HF
CORRELATION	pRIMP2
BASIS		cc-pvtz
METHOD		rimp2
AUX_BASIS	rimp2-cc-pvtz
SOLVENT_METHOD	PCM
PURECART	11111
SYMMETRY	false
MEM_TOTAL	110000
SCF_CONVERGENCE = 6
THRESH=10
$end

$solvent
dielectric 4.90
$end
--------------------------------------------------------------

             Standard Nuclear Orientation (Angstroms)
    I     Atom           X                Y                Z
 ----------------------------------------------------------------
    1      C      -0.0547830000    -0.5737270000     0.0172320000
    2      C       0.0205170000     0.2865730000     1.1166320000
    3      C       0.1411170000     1.6652730000     0.7939320000
    4      H      -0.0115830000    -0.0808270000     2.1533320000
    5      C       0.1604170000     1.8850730000    -0.5952680000
    6      S       0.0274170000     0.3650730000    -1.4695680000
    7      C       0.2360170000     2.7488730000     1.8318320000
    8      H       0.1989170000     2.3247730000     2.8539320000
    9      H      -0.5959830000     3.4783730000     1.7434320000
   10      H       1.1820170000     3.3228730000     1.7434320000
   11      C      -0.0547830000    -2.0144270000     0.0172320000
   12      H      -1.0695830000    -2.0146270000    -0.3522680000
   13      H      -0.3349830000    -2.7182270000     0.7870320000
   14      H       0.2691170000    -2.5333270000    -0.8727680000
   15      H       0.2431170000     2.8306730000    -1.1443680000
 ----------------------------------------------------------------

   10    -629.4228360613      6.87e-07  Convergence criterion met
 Total energy in the final basis set =     -629.4228360613
        RIMP2         total energy =      -630.5981406868 a.u.

                    Orbital Energies (a.u.)
 --------------------------------------------------------------

 Alpha MOs
 -- Occupied --
-91.9789 -11.2839 -11.2502 -11.2467 -11.2263 -11.2231 -11.2211  -8.9788
 -6.6598  -6.6592  -6.6586  -1.1602  -1.0562  -0.9964  -0.9438  -0.8822
 -0.7448  -0.7181  -0.6492  -0.5877  -0.5749  -0.5669  -0.5527  -0.5472
 -0.5077  -0.4933  -0.4650  -0.4562  -0.3389  -0.2897

          Ground-State Mulliken Net Atomic Charges

     Atom                 Charge (a.u.)
  ----------------------------------------
      1 C                     0.055249
      2 C                    -0.291941
      3 C                     0.043360
      4 H                     0.179135
      5 C                    -0.273630
      6 S                    -0.003735
      7 C                    -0.273956
      8 H                     0.101329
      9 H                     0.107185
     10 H                     0.107236
     11 C                    -0.381508
     12 H                     0.135743
     13 H                     0.164104
     14 H                     0.137443
     15 H                     0.193986
  ----------------------------------------
  Sum of atomic charges =     0.000000

                    Cartesian Multipole Moments
 -----------------------------------------------------------------
    Charge (ESU x 10^10)
                -0.0000
    Dipole Moment (Debye)
         X      -0.5806      Y      -0.6313      Z       1.1540
       Tot       1.4378
    Quadrupole Moments (Debye-Ang)
        XX     -54.2026     XY       2.2626     YY     -41.7731
        XZ      -0.2007     YZ       0.6818     ZZ     -48.6180

 Total job time:  161.37s(wall), 159.61s(cpu)
        *  Thank you very much for using Q-Chem.  Have a nice day.  *
