 Q-Chem 5.4, Q-Chem, Inc., Pleasanton, CA (2021)
 Q-Chem 5.4.0 for Intel X86 EM64T Linux

User input:
--------------------------------------------------------------
$molecule
0 1
C	-0.431552	-0.417597	0.016960
C	0.123548	0.243903	1.116360
C	1.013148	1.304103	0.793660
H	-0.113452	-0.038597	2.153060
C	1.155048	1.473103	-0.595540
S	0.174248	0.304303	-1.469840
C	1.712348	2.137303	1.831560
H	1.438748	1.811303	2.853660
H	1.449348	3.212103	1.743160
H	2.816548	2.064903	1.743160
C	-0.431552	-1.858297	0.016960
H	-1.366752	-1.857997	-0.523140
H	-0.021952	-2.562097	-0.692440
H	-0.905152	-2.377197	0.837160
H	1.765148	2.200203	-1.144640
$end

$rem
JOBTYPE		SP
EXCHANGE	HF
CORRELATION	pRIMP2
BASIS		cc-pvtz
METHOD		rimp2
AUX_BASIS	rimp2-cc-pvtz
SOLVENT_METHOD	PCM
PURECART	11111
SYMMETRY	false
MEM_TOTAL	110000
SCF_CONVERGENCE = 6
THRESH=10
$end

$solvent
dielectric 4.90
$end
--------------------------------------------------------------

             Standard Nuclear Orientation (Angstroms)
    I     Atom           X                Y                Z
 ----------------------------------------------------------------
    1      C      -0.4315520000    -0.4175970000     0.0169600000
    2      C       0.1235480000     0.2439030000     1.1163600000
    3      C       1.0131480000     1.3041030000     0.7936600000
    4      H      -0.1134520000    -0.0385970000     2.1530600000
    5      C       1.1550480000     1.4731030000    -0.5955400000
    6      S       0.1742480000     0.3043030000    -1.4698400000
    7      C       1.7123480000     2.1373030000     1.8315600000
    8      H       1.4387480000     1.8113030000     2.8536600000
    9      H       1.4493480000     3.2121030000     1.7431600000
   10      H       2.8165480000     2.0649030000     1.7431600000
   11      C      -0.4315520000    -1.8582970000     0.0169600000
   12      H      -1.3667520000    -1.8579970000    -0.5231400000
   13      H      -0.0219520000    -2.5620970000    -0.6924400000
   14      H      -0.9051520000    -2.3771970000     0.8371600000
   15      H       1.7651480000     2.2002030000    -1.1446400000
 ----------------------------------------------------------------

   10    -629.3837795885      6.21e-07  Convergence criterion met
 Total energy in the final basis set =     -629.3837795885
        RIMP2         total energy =      -630.5688378920 a.u.

                    Orbital Energies (a.u.)
 --------------------------------------------------------------

 Alpha MOs
 -- Occupied --
-91.9769 -11.2648 -11.2641 -11.2478 -11.2357 -11.2273 -11.2111  -8.9771
 -6.6581  -6.6574  -6.6569  -1.1642  -1.0539  -0.9958  -0.9429  -0.8820
 -0.7477  -0.7225  -0.6431  -0.5870  -0.5741  -0.5738  -0.5504  -0.5447
 -0.5144  -0.4848  -0.4560  -0.4453  -0.3372  -0.2905

          Ground-State Mulliken Net Atomic Charges

     Atom                 Charge (a.u.)
  ----------------------------------------
      1 C                    -0.036169
      2 C                    -0.212526
      3 C                     0.029014
      4 H                     0.182349
      5 C                    -0.233139
      6 S                    -0.000368
      7 C                    -0.270321
      8 H                     0.101469
      9 H                     0.106896
     10 H                     0.105493
     11 C                    -0.378665
     12 H                     0.123382
     13 H                     0.159227
     14 H                     0.128103
     15 H                     0.195257
  ----------------------------------------
  Sum of atomic charges =     0.000000

                    Cartesian Multipole Moments
 -----------------------------------------------------------------
    Charge (ESU x 10^10)
                -0.0000
    Dipole Moment (Debye)
         X       0.6998      Y       0.0161      Z       1.2824
       Tot       1.4610
    Quadrupole Moments (Debye-Ang)
        XX     -50.4874     XY       5.5017     YY     -46.3169
        XZ      -0.2327     YZ       0.7166     ZZ     -48.2417

 Total job time:  157.71s(wall), 154.63s(cpu)
        *  Thank you very much for using Q-Chem.  Have a nice day.  *
