 Q-Chem 5.4, Q-Chem, Inc., Pleasanton, CA (2021)
 Q-Chem 5.4.0 for Intel X86 EM64T Linux

User input:
--------------------------------------------------------------
$molecule
0 1
C	-0.004696	-0.576312	0.016439
C	-0.004696	0.287288	1.115839
C	-0.004596	1.671188	0.793139
H	-0.004696	-0.081512	2.152539
C	-0.004596	1.891888	-0.596061
S	-0.004696	0.366088	-1.470361
C	-0.004596	2.758988	1.831039
H	-0.004596	2.333288	2.853139
H	-0.896996	3.413288	1.742639
H	0.887804	3.413188	1.742639
C	-0.004696	-2.017012	0.016439
H	1.058904	-2.016712	-0.170961
H	0.137504	-2.720812	0.823239
H	-0.169196	-2.535912	-0.916261
H	-0.004596	2.841088	-1.145161
$end

$rem
JOBTYPE		SP
EXCHANGE	HF
CORRELATION	pRIMP2
BASIS		cc-pvtz
METHOD		rimp2
AUX_BASIS	rimp2-cc-pvtz
SOLVENT_METHOD	PCM
PURECART	11111
SYMMETRY	false
MEM_TOTAL	110000
SCF_CONVERGENCE = 6
THRESH=10
$end

$solvent
dielectric 4.90
$end
--------------------------------------------------------------

   10    -629.4244230550      7.10e-07  Convergence criterion met
 Total energy in the final basis set =     -629.4244230550
        RIMP2         total energy =      -630.5992579040 a.u.
 Total job time:  158.06s(wall), 155.74s(cpu)
        *  Thank you very much for using Q-Chem.  Have a nice day.  *
 Q-Chem 5.4, Q-Chem, Inc., Pleasanton, CA (2021)
 Q-Chem 5.4.0 for Intel X86 EM64T Linux

User input:
--------------------------------------------------------------
$molecule
0 1
C	-0.004696	-0.576312	0.016439
C	-0.004696	0.287288	1.115839
C	-0.004596	1.671188	0.793139
H	-0.004696	-0.081512	2.152539
C	-0.004596	1.891888	-0.596061
S	-0.004696	0.366088	-1.470361
C	-0.004596	2.758988	1.831039
H	-0.004596	2.333288	2.853139
H	-0.896996	3.413288	1.742639
H	0.887804	3.413188	1.742639
C	-0.004696	-2.017012	0.016439
H	1.058904	-2.016712	-0.170961
H	0.137504	-2.720812	0.823239
H	-0.169196	-2.535912	-0.916261
H	-0.004596	2.841088	-1.145161
$end

$rem
JOBTYPE		SP
EXCHANGE	HF
CORRELATION	pRIMP2
BASIS		cc-pvtz
METHOD		rimp2
AUX_BASIS	rimp2-cc-pvtz
SOLVENT_METHOD	PCM
PURECART	11111
SYMMETRY	false
MEM_TOTAL	110000
SCF_CONVERGENCE = 6
THRESH=10
$end

$solvent
dielectric 4.90
$end
--------------------------------------------------------------

             Standard Nuclear Orientation (Angstroms)
    I     Atom           X                Y                Z
 ----------------------------------------------------------------
    1      C      -0.0046960000    -0.5763120000     0.0164390000
    2      C      -0.0046960000     0.2872880000     1.1158390000
    3      C      -0.0045960000     1.6711880000     0.7931390000
    4      H      -0.0046960000    -0.0815120000     2.1525390000
    5      C      -0.0045960000     1.8918880000    -0.5960610000
    6      S      -0.0046960000     0.3660880000    -1.4703610000
    7      C      -0.0045960000     2.7589880000     1.8310390000
    8      H      -0.0045960000     2.3332880000     2.8531390000
    9      H      -0.8969960000     3.4132880000     1.7426390000
   10      H       0.8878040000     3.4131880000     1.7426390000
   11      C      -0.0046960000    -2.0170120000     0.0164390000
   12      H       1.0589040000    -2.0167120000    -0.1709610000
   13      H       0.1375040000    -2.7208120000     0.8232390000
   14      H      -0.1691960000    -2.5359120000    -0.9162610000
   15      H      -0.0045960000     2.8410880000    -1.1451610000
 ----------------------------------------------------------------

   10    -629.4244230550      7.10e-07  Convergence criterion met
 Total energy in the final basis set =     -629.4244230550
        RIMP2         total energy =      -630.5992579040 a.u.

                    Orbital Energies (a.u.)
 --------------------------------------------------------------

 Alpha MOs
 -- Occupied --
-91.9790 -11.2855 -11.2489 -11.2467 -11.2262 -11.2223 -11.2220  -8.9788
 -6.6598  -6.6593  -6.6586  -1.1602  -1.0564  -0.9967  -0.9431  -0.8823
 -0.7443  -0.7182  -0.6496  -0.5870  -0.5752  -0.5669  -0.5532  -0.5471
 -0.5072  -0.4946  -0.4659  -0.4570  -0.3389  -0.2886

          Ground-State Mulliken Net Atomic Charges

     Atom                 Charge (a.u.)
  ----------------------------------------
      1 C                     0.063115
      2 C                    -0.307015
      3 C                     0.049994
      4 H                     0.177166
      5 C                    -0.280489
      6 S                     0.000020
      7 C                    -0.274152
      8 H                     0.101381
      9 H                     0.107206
     10 H                     0.107340
     11 C                    -0.383264
     12 H                     0.141577
     13 H                     0.165523
     14 H                     0.138134
     15 H                     0.193462
  ----------------------------------------
  Sum of atomic charges =     0.000000

                    Cartesian Multipole Moments
 -----------------------------------------------------------------
    Charge (ESU x 10^10)
                -0.0000
    Dipole Moment (Debye)
         X       0.7278      Y      -0.7366      Z       1.2557
       Tot       1.6276
    Quadrupole Moments (Debye-Ang)
        XX     -54.3972     XY      -1.5499     YY     -41.6500
        XZ       0.1502     YZ       0.4539     ZZ     -48.6009

 Total job time:  156.83s(wall), 155.25s(cpu)
        *  Thank you very much for using Q-Chem.  Have a nice day.  *
