 Q-Chem 5.4, Q-Chem, Inc., Pleasanton, CA (2021)
 Q-Chem 5.4.0 for Intel X86 EM64T Linux

User input:
--------------------------------------------------------------
$molecule
0 1
C	-0.172896	-0.553189	0.019119
C	0.050604	0.281011	1.118519
C	0.408804	1.617711	0.795819
H	-0.044796	-0.075289	2.155219
C	0.466004	1.830811	-0.593381
S	0.071004	0.357111	-1.467681
C	0.690404	2.668411	1.833719
H	0.580204	2.257311	2.855819
H	-0.002196	3.531411	1.745319
H	1.721704	3.069411	1.745319
C	-0.172896	-1.993889	0.019119
H	-0.866996	-1.994089	-0.808281
H	-0.800496	-2.697689	0.545619
H	0.552604	-2.512789	-0.589681
H	0.711704	2.747711	-1.142481
$end

$rem
JOBTYPE		SP
EXCHANGE	HF
CORRELATION	pRIMP2
BASIS		cc-pvtz
METHOD		rimp2
AUX_BASIS	rimp2-cc-pvtz
SOLVENT_METHOD	PCM
PURECART	11111
SYMMETRY	false
MEM_TOTAL	110000
SCF_CONVERGENCE = 6
THRESH=10
$end

$solvent
dielectric 4.90
$end
--------------------------------------------------------------

             Standard Nuclear Orientation (Angstroms)
    I     Atom           X                Y                Z
 ----------------------------------------------------------------
    1      C      -0.1728960000    -0.5531890000     0.0191190000
    2      C       0.0506040000     0.2810110000     1.1185190000
    3      C       0.4088040000     1.6177110000     0.7958190000
    4      H      -0.0447960000    -0.0752890000     2.1552190000
    5      C       0.4660040000     1.8308110000    -0.5933810000
    6      S       0.0710040000     0.3571110000    -1.4676810000
    7      C       0.6904040000     2.6684110000     1.8337190000
    8      H       0.5802040000     2.2573110000     2.8558190000
    9      H      -0.0021960000     3.5314110000     1.7453190000
   10      H       1.7217040000     3.0694110000     1.7453190000
   11      C      -0.1728960000    -1.9938890000     0.0191190000
   12      H      -0.8669960000    -1.9940890000    -0.8082810000
   13      H      -0.8004960000    -2.6976890000     0.5456190000
   14      H       0.5526040000    -2.5127890000    -0.5896810000
   15      H       0.7117040000     2.7477110000    -1.1424810000
 ----------------------------------------------------------------

   10    -629.4169605781      5.68e-07  Convergence criterion met
 Total energy in the final basis set =     -629.4169605781
        RIMP2         total energy =      -630.5946879897 a.u.

                    Orbital Energies (a.u.)
 --------------------------------------------------------------

 Alpha MOs
 -- Occupied --
-91.9798 -11.2768 -11.2563 -11.2470 -11.2276 -11.2266 -11.2170  -8.9796
 -6.6606  -6.6601  -6.6595  -1.1610  -1.0552  -0.9956  -0.9454  -0.8818
 -0.7468  -0.7187  -0.6478  -0.5905  -0.5747  -0.5664  -0.5532  -0.5469
 -0.5093  -0.4866  -0.4643  -0.4501  -0.3387  -0.2968

          Ground-State Mulliken Net Atomic Charges

     Atom                 Charge (a.u.)
  ----------------------------------------
      1 C                     0.028064
      2 C                    -0.258370
      3 C                     0.034193
      4 H                     0.180101
      5 C                    -0.253982
      6 S                    -0.004081
      7 C                    -0.273393
      8 H                     0.101599
      9 H                     0.106958
     10 H                     0.106887
     11 C                    -0.370418
     12 H                     0.118845
     13 H                     0.158335
     14 H                     0.130690
     15 H                     0.194574
  ----------------------------------------
  Sum of atomic charges =     0.000000

                    Cartesian Multipole Moments
 -----------------------------------------------------------------
    Charge (ESU x 10^10)
                -0.0000
    Dipole Moment (Debye)
         X      -0.0380      Y      -0.1773      Z       0.9680
       Tot       0.9848
    Quadrupole Moments (Debye-Ang)
        XX     -53.3005     XY       3.2684     YY     -42.6348
        XZ      -0.2167     YZ       1.1078     ZZ     -48.7151

 Total job time:  155.20s(wall), 154.40s(cpu)
        *  Thank you very much for using Q-Chem.  Have a nice day.  *
