 Q-Chem 5.4, Q-Chem, Inc., Pleasanton, CA (2021)
 Q-Chem 5.4.0 for Intel X86 EM64T Linux

User input:
--------------------------------------------------------------
$molecule
0 1
C	-0.061074	-0.573729	0.019521
C	0.014226	0.286571	1.118921
C	0.134826	1.665271	0.796221
H	-0.017874	-0.080829	2.155621
C	0.154126	1.885071	-0.592979
S	0.021126	0.365071	-1.467279
C	0.229726	2.748871	1.834121
H	0.192626	2.324771	2.856221
H	-0.602274	3.478371	1.745721
H	1.175726	3.322871	1.745721
C	-0.061074	-2.014429	0.019521
H	0.479026	-2.014129	-0.915679
H	0.648326	-2.718229	0.429121
H	-0.881274	-2.533329	-0.454079
H	0.236826	2.830671	-1.142079
$end

$rem
JOBTYPE		SP
EXCHANGE	HF
CORRELATION	pRIMP2
BASIS		cc-pvtz
METHOD		rimp2
AUX_BASIS	rimp2-cc-pvtz
SOLVENT_METHOD	PCM
PURECART	11111
SYMMETRY	false
MEM_TOTAL	110000
SCF_CONVERGENCE = 6
THRESH=10
$end

$solvent
dielectric 4.90
$end
--------------------------------------------------------------

             Standard Nuclear Orientation (Angstroms)
    I     Atom           X                Y                Z
 ----------------------------------------------------------------
    1      C      -0.0610740000    -0.5737290000     0.0195210000
    2      C       0.0142260000     0.2865710000     1.1189210000
    3      C       0.1348260000     1.6652710000     0.7962210000
    4      H      -0.0178740000    -0.0808290000     2.1556210000
    5      C       0.1541260000     1.8850710000    -0.5929790000
    6      S       0.0211260000     0.3650710000    -1.4672790000
    7      C       0.2297260000     2.7488710000     1.8341210000
    8      H       0.1926260000     2.3247710000     2.8562210000
    9      H      -0.6022740000     3.4783710000     1.7457210000
   10      H       1.1757260000     3.3228710000     1.7457210000
   11      C      -0.0610740000    -2.0144290000     0.0195210000
   12      H       0.4790260000    -2.0141290000    -0.9156790000
   13      H       0.6483260000    -2.7182290000     0.4291210000
   14      H      -0.8812740000    -2.5333290000    -0.4540790000
   15      H       0.2368260000     2.8306710000    -1.1420790000
 ----------------------------------------------------------------

   10    -629.4209494022      5.96e-07  Convergence criterion met
 Total energy in the final basis set =     -629.4209494022
        RIMP2         total energy =      -630.5979454538 a.u.

                    Orbital Energies (a.u.)
 --------------------------------------------------------------

 Alpha MOs
 -- Occupied --
-91.9795 -11.2775 -11.2560 -11.2469 -11.2279 -11.2267 -11.2171  -8.9795
 -6.6604  -6.6599  -6.6592  -1.1609  -1.0555  -0.9954  -0.9459  -0.8816
 -0.7472  -0.7184  -0.6487  -0.5905  -0.5756  -0.5652  -0.5537  -0.5474
 -0.5087  -0.4876  -0.4649  -0.4481  -0.3390  -0.2993

          Ground-State Mulliken Net Atomic Charges

     Atom                 Charge (a.u.)
  ----------------------------------------
      1 C                     0.057203
      2 C                    -0.278089
      3 C                     0.043717
      4 H                     0.180563
      5 C                    -0.261339
      6 S                    -0.003303
      7 C                    -0.273305
      8 H                     0.101694
      9 H                     0.107147
     10 H                     0.106988
     11 C                    -0.373834
     12 H                     0.118728
     13 H                     0.152360
     14 H                     0.126646
     15 H                     0.194824
  ----------------------------------------
  Sum of atomic charges =     0.000000

                    Cartesian Multipole Moments
 -----------------------------------------------------------------
    Charge (ESU x 10^10)
                -0.0000
    Dipole Moment (Debye)
         X       0.4478      Y      -0.1417      Z       0.8943
       Tot       1.0102
    Quadrupole Moments (Debye-Ang)
        XX     -53.8453     XY      -0.0769     YY     -42.1263
        XZ       0.3105     YZ       1.3385     ZZ     -48.7861

 Total job time:  158.57s(wall), 157.45s(cpu)
        *  Thank you very much for using Q-Chem.  Have a nice day.  *
