 Q-Chem 5.4, Q-Chem, Inc., Pleasanton, CA (2021)
 Q-Chem 5.4.0 for Intel X86 EM64T Linux

User input:
--------------------------------------------------------------
$molecule
0 1
C	-0.112934	-0.566010	0.015309
C	0.037066	0.284490	1.114709
C	0.277366	1.647390	0.792009
H	-0.027034	-0.078710	2.151409
C	0.315766	1.864690	-0.597191
S	0.050766	0.362090	-1.471491
C	0.466266	2.718590	1.829909
H	0.392366	2.299390	2.852009
H	-0.298934	3.517890	1.741509
H	1.458766	3.207890	1.741509
C	-0.112934	-2.006710	0.015309
H	-1.176534	-2.006410	-0.172391
H	0.029366	-2.710510	-0.791391
H	-0.277434	-2.525610	0.948009
H	0.480566	2.799390	-1.146291
$end

$rem
JOBTYPE		SP
EXCHANGE	HF
CORRELATION	pRIMP2
BASIS		cc-pvtz
METHOD		rimp2
AUX_BASIS	rimp2-cc-pvtz
SOLVENT_METHOD	PCM
PURECART	11111
SYMMETRY	false
MEM_TOTAL	110000
SCF_CONVERGENCE = 6
THRESH=10
$end

$solvent
dielectric 4.90
$end
--------------------------------------------------------------

             Standard Nuclear Orientation (Angstroms)
    I     Atom           X                Y                Z
 ----------------------------------------------------------------
    1      C      -0.1129340000    -0.5660100000     0.0153090000
    2      C       0.0370660000     0.2844900000     1.1147090000
    3      C       0.2773660000     1.6473900000     0.7920090000
    4      H      -0.0270340000    -0.0787100000     2.1514090000
    5      C       0.3157660000     1.8646900000    -0.5971910000
    6      S       0.0507660000     0.3620900000    -1.4714910000
    7      C       0.4662660000     2.7185900000     1.8299090000
    8      H       0.3923660000     2.2993900000     2.8520090000
    9      H      -0.2989340000     3.5178900000     1.7415090000
   10      H       1.4587660000     3.2078900000     1.7415090000
   11      C      -0.1129340000    -2.0067100000     0.0153090000
   12      H      -1.1765340000    -2.0064100000    -0.1723910000
   13      H       0.0293660000    -2.7105100000    -0.7913910000
   14      H      -0.2774340000    -2.5256100000     0.9480090000
   15      H       0.4805660000     2.7993900000    -1.1462910000
 ----------------------------------------------------------------

   10    -629.4210753497      6.72e-07  Convergence criterion met
 Total energy in the final basis set =     -629.4210753497
        RIMP2         total energy =      -630.5971716147 a.u.

                    Orbital Energies (a.u.)
 --------------------------------------------------------------

 Alpha MOs
 -- Occupied --
-91.9775 -11.2843 -11.2498 -11.2469 -11.2264 -11.2244 -11.2210  -8.9774
 -6.6585  -6.6579  -6.6573  -1.1601  -1.0559  -0.9971  -0.9426  -0.8827
 -0.7443  -0.7186  -0.6472  -0.5892  -0.5744  -0.5709  -0.5512  -0.5462
 -0.5087  -0.4931  -0.4629  -0.4563  -0.3384  -0.2885

          Ground-State Mulliken Net Atomic Charges

     Atom                 Charge (a.u.)
  ----------------------------------------
      1 C                     0.051740
      2 C                    -0.292063
      3 C                     0.044061
      4 H                     0.178969
      5 C                    -0.275378
      6 S                    -0.004941
      7 C                    -0.273687
      8 H                     0.101222
      9 H                     0.107219
     10 H                     0.107241
     11 C                    -0.378239
     12 H                     0.138339
     13 H                     0.162102
     14 H                     0.140255
     15 H                     0.193160
  ----------------------------------------
  Sum of atomic charges =     0.000000

                    Cartesian Multipole Moments
 -----------------------------------------------------------------
    Charge (ESU x 10^10)
                -0.0000
    Dipole Moment (Debye)
         X      -0.5310      Y      -0.6781      Z       1.2993
       Tot       1.5588
    Quadrupole Moments (Debye-Ang)
        XX     -54.0032     XY       3.0310     YY     -42.0035
        XZ      -0.0595     YZ       0.7281     ZZ     -48.5766

 Total job time:  158.15s(wall), 155.05s(cpu)
        *  Thank you very much for using Q-Chem.  Have a nice day.  *
