 Q-Chem 5.4, Q-Chem, Inc., Pleasanton, CA (2021)
 Q-Chem 5.4.0 for Intel X86 EM64T Linux

User input:
--------------------------------------------------------------
$molecule
0 1
C	-0.227256	-0.535397	0.016152
C	0.068144	0.276103	1.115552
C	0.541444	1.576503	0.792852
H	-0.057956	-0.070397	2.152252
C	0.616944	1.783903	-0.596348
S	0.095044	0.350203	-1.470648
C	0.913544	2.598703	1.830752
H	0.767944	2.198703	2.852852
H	0.298744	3.518703	1.742352
H	1.975944	2.908303	1.742352
C	-0.227256	-1.976097	0.016152
H	-1.242056	-1.975797	-0.353348
H	0.052944	-2.679897	-0.753648
H	-0.551156	-2.494997	0.906152
H	0.941644	2.675903	-1.145448
$end

$rem
JOBTYPE		SP
EXCHANGE	HF
CORRELATION	pRIMP2
BASIS		cc-pvtz
METHOD		rimp2
AUX_BASIS	rimp2-cc-pvtz
SOLVENT_METHOD	PCM
PURECART	11111
SYMMETRY	false
MEM_TOTAL	110000
SCF_CONVERGENCE = 6
THRESH=10
$end

$solvent
dielectric 4.90
$end
--------------------------------------------------------------

             Standard Nuclear Orientation (Angstroms)
    I     Atom           X                Y                Z
 ----------------------------------------------------------------
    1      C      -0.2272560000    -0.5353970000     0.0161520000
    2      C       0.0681440000     0.2761030000     1.1155520000
    3      C       0.5414440000     1.5765030000     0.7928520000
    4      H      -0.0579560000    -0.0703970000     2.1522520000
    5      C       0.6169440000     1.7839030000    -0.5963480000
    6      S       0.0950440000     0.3502030000    -1.4706480000
    7      C       0.9135440000     2.5987030000     1.8307520000
    8      H       0.7679440000     2.1987030000     2.8528520000
    9      H       0.2987440000     3.5187030000     1.7423520000
   10      H       1.9759440000     2.9083030000     1.7423520000
   11      C      -0.2272560000    -1.9760970000     0.0161520000
   12      H      -1.2420560000    -1.9757970000    -0.3533480000
   13      H       0.0529440000    -2.6798970000    -0.7536480000
   14      H      -0.5511560000    -2.4949970000     0.9061520000
   15      H       0.9416440000     2.6759030000    -1.1454480000
 ----------------------------------------------------------------

   10    -629.4125632117      5.99e-07  Convergence criterion met
 Total energy in the final basis set =     -629.4125632117
        RIMP2         total energy =      -630.5909098019 a.u.

                    Orbital Energies (a.u.)
 --------------------------------------------------------------

 Alpha MOs
 -- Occupied --
-91.9775 -11.2796 -11.2534 -11.2471 -11.2270 -11.2266 -11.2181  -8.9775
 -6.6585  -6.6579  -6.6573  -1.1608  -1.0552  -0.9966  -0.9432  -0.8826
 -0.7452  -0.7193  -0.6462  -0.5886  -0.5740  -0.5718  -0.5504  -0.5462
 -0.5103  -0.4907  -0.4593  -0.4556  -0.3383  -0.2895

          Ground-State Mulliken Net Atomic Charges

     Atom                 Charge (a.u.)
  ----------------------------------------
      1 C                     0.023310
      2 C                    -0.268162
      3 C                     0.039990
      4 H                     0.181099
      5 C                    -0.264683
      6 S                    -0.006009
      7 C                    -0.272233
      8 H                     0.101316
      9 H                     0.107034
     10 H                     0.106818
     11 C                    -0.372208
     12 H                     0.132059
     13 H                     0.161276
     14 H                     0.136504
     15 H                     0.193890
  ----------------------------------------
  Sum of atomic charges =     0.000000

                    Cartesian Multipole Moments
 -----------------------------------------------------------------
    Charge (ESU x 10^10)
                -0.0000
    Dipole Moment (Debye)
         X      -0.2165      Y      -0.4557      Z       1.2294
       Tot       1.3289
    Quadrupole Moments (Debye-Ang)
        XX     -53.1155     XY       4.2245     YY     -43.0062
        XZ      -0.1027     YZ       0.8518     ZZ     -48.5151

 Total job time:  158.35s(wall), 155.97s(cpu)
        *  Thank you very much for using Q-Chem.  Have a nice day.  *
