 Q-Chem 5.4, Q-Chem, Inc., Pleasanton, CA (2021)
 Q-Chem 5.4.0 for Intel X86 EM64T Linux

User input:
--------------------------------------------------------------
$molecule
0 1
C	-0.586350	-0.237129	0.010277
C	0.161550	0.194671	1.109677
C	1.360050	0.886571	0.786977
H	-0.157850	0.010271	2.146377
C	1.551150	0.996871	-0.602223
S	0.229850	0.234071	-1.476523
C	2.302150	1.430471	1.824877
H	1.933450	1.217571	2.846977
H	2.422550	2.530371	1.736477
H	3.314950	0.984671	1.736477
C	-0.586350	-1.677829	0.010277
H	-0.955850	-1.677529	1.025077
H	-1.356150	-2.381629	-0.269923
H	0.303650	-2.196729	0.334177
H	2.373250	1.471471	-1.151323
$end

$rem
JOBTYPE		SP
EXCHANGE	HF
CORRELATION	pRIMP2
BASIS		cc-pvtz
METHOD		rimp2
AUX_BASIS	rimp2-cc-pvtz
SOLVENT_METHOD	PCM
PURECART	11111
SYMMETRY	false
MEM_TOTAL	110000
SCF_CONVERGENCE = 6
THRESH=10
$end

$solvent
dielectric 4.90
$end
--------------------------------------------------------------

             Standard Nuclear Orientation (Angstroms)
    I     Atom           X                Y                Z
 ----------------------------------------------------------------
    1      C      -0.5863500000    -0.2371290000     0.0102770000
    2      C       0.1615500000     0.1946710000     1.1096770000
    3      C       1.3600500000     0.8865710000     0.7869770000
    4      H      -0.1578500000     0.0102710000     2.1463770000
    5      C       1.5511500000     0.9968710000    -0.6022230000
    6      S       0.2298500000     0.2340710000    -1.4765230000
    7      C       2.3021500000     1.4304710000     1.8248770000
    8      H       1.9334500000     1.2175710000     2.8469770000
    9      H       2.4225500000     2.5303710000     1.7364770000
   10      H       3.3149500000     0.9846710000     1.7364770000
   11      C      -0.5863500000    -1.6778290000     0.0102770000
   12      H      -0.9558500000    -1.6775290000     1.0250770000
   13      H      -1.3561500000    -2.3816290000    -0.2699230000
   14      H       0.3036500000    -2.1967290000     0.3341770000
   15      H       2.3732500000     1.4714710000    -1.1513230000
 ----------------------------------------------------------------

   11    -629.3535852812      4.16e-07  Convergence criterion met
 Total energy in the final basis set =     -629.3535852812
        RIMP2         total energy =      -630.5446140338 a.u.

                    Orbital Energies (a.u.)
 --------------------------------------------------------------

 Alpha MOs
 -- Occupied --
-91.9719 -11.2837 -11.2547 -11.2502 -11.2447 -11.2298 -11.2087  -8.9730
 -6.6538  -6.6529  -6.6527  -1.1748  -1.0568  -1.0019  -0.9338  -0.8837
 -0.7481  -0.7343  -0.6434  -0.5937  -0.5851  -0.5664  -0.5539  -0.5436
 -0.5188  -0.4767  -0.4606  -0.4171  -0.3347  -0.3058

          Ground-State Mulliken Net Atomic Charges

     Atom                 Charge (a.u.)
  ----------------------------------------
      1 C                    -0.094825
      2 C                    -0.132320
      3 C                    -0.017021
      4 H                     0.183242
      5 C                    -0.181587
      6 S                     0.012159
      7 C                    -0.266807
      8 H                     0.102162
      9 H                     0.106972
     10 H                     0.105165
     11 C                    -0.359613
     12 H                     0.098062
     13 H                     0.126345
     14 H                     0.120441
     15 H                     0.197624
  ----------------------------------------
  Sum of atomic charges =     0.000000

                    Cartesian Multipole Moments
 -----------------------------------------------------------------
    Charge (ESU x 10^10)
                -0.0000
    Dipole Moment (Debye)
         X       2.3146      Y       0.2344      Z       2.2659
       Tot       3.2476
    Quadrupole Moments (Debye-Ang)
        XX     -47.5201     XY       4.8693     YY     -50.0806
        XZ      -0.3302     YZ      -0.7742     ZZ     -48.1012

 Total job time:  176.85s(wall), 175.72s(cpu)
        *  Thank you very much for using Q-Chem.  Have a nice day.  *
