 Q-Chem 5.4, Q-Chem, Inc., Pleasanton, CA (2021)
 Q-Chem 5.4.0 for Intel X86 EM64T Linux

User input:
--------------------------------------------------------------
$molecule
0 1
C	-0.591557	-0.237127	0.017710
C	0.156343	0.194673	1.117110
C	1.354843	0.886573	0.794410
H	-0.163057	0.010273	2.153810
C	1.545943	0.996873	-0.594790
S	0.224643	0.234073	-1.469090
C	2.296943	1.430473	1.832310
H	1.928243	1.217573	2.854410
H	2.417343	2.530373	1.743910
H	3.309743	0.984673	1.743910
C	-0.591557	-1.677827	0.017710
H	0.235843	-1.678027	-0.676390
H	-1.118057	-2.381627	-0.609890
H	0.017243	-2.196727	0.743210
H	2.368043	1.471473	-1.143890
$end

$rem
JOBTYPE		SP
EXCHANGE	HF
CORRELATION	pRIMP2
BASIS		cc-pvtz
METHOD		rimp2
AUX_BASIS	rimp2-cc-pvtz
SOLVENT_METHOD	PCM
PURECART	11111
SYMMETRY	false
MEM_TOTAL	110000
SCF_CONVERGENCE = 6
THRESH=10
$end

$solvent
dielectric 4.90
$end
--------------------------------------------------------------

             Standard Nuclear Orientation (Angstroms)
    I     Atom           X                Y                Z
 ----------------------------------------------------------------
    1      C      -0.5915570000    -0.2371270000     0.0177100000
    2      C       0.1563430000     0.1946730000     1.1171100000
    3      C       1.3548430000     0.8865730000     0.7944100000
    4      H      -0.1630570000     0.0102730000     2.1538100000
    5      C       1.5459430000     0.9968730000    -0.5947900000
    6      S       0.2246430000     0.2340730000    -1.4690900000
    7      C       2.2969430000     1.4304730000     1.8323100000
    8      H       1.9282430000     1.2175730000     2.8544100000
    9      H       2.4173430000     2.5303730000     1.7439100000
   10      H       3.3097430000     0.9846730000     1.7439100000
   11      C      -0.5915570000    -1.6778270000     0.0177100000
   12      H       0.2358430000    -1.6780270000    -0.6763900000
   13      H      -1.1180570000    -2.3816270000    -0.6098900000
   14      H       0.0172430000    -2.1967270000     0.7432100000
   15      H       2.3680430000     1.4714730000    -1.1438900000
 ----------------------------------------------------------------

   10    -629.3396998633      7.97e-07  Convergence criterion met
 Total energy in the final basis set =     -629.3396998633
        RIMP2         total energy =      -630.5313437700 a.u.

                    Orbital Energies (a.u.)
 --------------------------------------------------------------

 Alpha MOs
 -- Occupied --
-91.9690 -11.2810 -11.2531 -11.2517 -11.2498 -11.2294 -11.2073  -8.9712
 -6.6519  -6.6510  -6.6508  -1.1788  -1.0601  -0.9967  -0.9416  -0.8777
 -0.7559  -0.7298  -0.6439  -0.5909  -0.5856  -0.5654  -0.5539  -0.5466
 -0.5139  -0.4887  -0.4617  -0.4277  -0.3371  -0.2905

          Ground-State Mulliken Net Atomic Charges

     Atom                 Charge (a.u.)
  ----------------------------------------
      1 C                    -0.071611
      2 C                    -0.149590
      3 C                    -0.013038
      4 H                     0.187034
      5 C                    -0.192169
      6 S                    -0.004344
      7 C                    -0.267665
      8 H                     0.102223
      9 H                     0.107945
     10 H                     0.105545
     11 C                    -0.376207
     12 H                     0.128645
     13 H                     0.122910
     14 H                     0.122452
     15 H                     0.197872
  ----------------------------------------
  Sum of atomic charges =     0.000000

                    Cartesian Multipole Moments
 -----------------------------------------------------------------
    Charge (ESU x 10^10)
                -0.0000
    Dipole Moment (Debye)
         X       2.8203      Y      -0.0365      Z       1.4529
       Tot       3.1728
    Quadrupole Moments (Debye-Ang)
        XX     -48.5786     XY       3.5407     YY     -50.2558
        XZ       0.1678     YZ       1.0940     ZZ     -47.8310

 Total job time:  167.29s(wall), 165.55s(cpu)
        *  Thank you very much for using Q-Chem.  Have a nice day.  *
