 Q-Chem 5.4, Q-Chem, Inc., Pleasanton, CA (2021)
 Q-Chem 5.4.0 for Intel X86 EM64T Linux

User input:
--------------------------------------------------------------
$molecule
0 1
C	-0.121726	-0.566010	0.017955
C	0.028274	0.284490	1.117355
C	0.268574	1.647390	0.794655
H	-0.035826	-0.078710	2.154055
C	0.306974	1.864690	-0.594545
S	0.041974	0.362090	-1.468845
C	0.457474	2.718590	1.832555
H	0.383574	2.299390	2.854655
H	-0.307726	3.517890	1.744155
H	1.449974	3.207890	1.744155
C	-0.121726	-2.006710	0.017955
H	0.813674	-2.006410	-0.521945
H	0.287774	-2.710510	0.727455
H	-0.595326	-2.525610	-0.802245
H	0.471774	2.799390	-1.143645
$end

$rem
JOBTYPE		SP
EXCHANGE	HF
CORRELATION	pRIMP2
BASIS		cc-pvtz
METHOD		rimp2
AUX_BASIS	rimp2-cc-pvtz
SOLVENT_METHOD	PCM
PURECART	11111
SYMMETRY	false
MEM_TOTAL	110000
SCF_CONVERGENCE = 6
THRESH=10
$end

$solvent
dielectric 4.90
$end
--------------------------------------------------------------

   10    -629.4225818529      6.98e-07  Convergence criterion met
 Total energy in the final basis set =     -629.4225818529
        RIMP2         total energy =      -630.5980849225 a.u.
 Total job time:  158.25s(wall), 156.24s(cpu)
        *  Thank you very much for using Q-Chem.  Have a nice day.  *
 Q-Chem 5.4, Q-Chem, Inc., Pleasanton, CA (2021)
 Q-Chem 5.4.0 for Intel X86 EM64T Linux

User input:
--------------------------------------------------------------
$molecule
0 1
C	-0.121726	-0.566010	0.017955
C	0.028274	0.284490	1.117355
C	0.268574	1.647390	0.794655
H	-0.035826	-0.078710	2.154055
C	0.306974	1.864690	-0.594545
S	0.041974	0.362090	-1.468845
C	0.457474	2.718590	1.832555
H	0.383574	2.299390	2.854655
H	-0.307726	3.517890	1.744155
H	1.449974	3.207890	1.744155
C	-0.121726	-2.006710	0.017955
H	0.813674	-2.006410	-0.521945
H	0.287774	-2.710510	0.727455
H	-0.595326	-2.525610	-0.802245
H	0.471774	2.799390	-1.143645
$end

$rem
JOBTYPE		SP
EXCHANGE	HF
CORRELATION	pRIMP2
BASIS		cc-pvtz
METHOD		rimp2
AUX_BASIS	rimp2-cc-pvtz
SOLVENT_METHOD	PCM
PURECART	11111
SYMMETRY	false
MEM_TOTAL	110000
SCF_CONVERGENCE = 6
THRESH=10
$end

$solvent
dielectric 4.90
$end
--------------------------------------------------------------

             Standard Nuclear Orientation (Angstroms)
    I     Atom           X                Y                Z
 ----------------------------------------------------------------
    1      C      -0.1217260000    -0.5660100000     0.0179550000
    2      C       0.0282740000     0.2844900000     1.1173550000
    3      C       0.2685740000     1.6473900000     0.7946550000
    4      H      -0.0358260000    -0.0787100000     2.1540550000
    5      C       0.3069740000     1.8646900000    -0.5945450000
    6      S       0.0419740000     0.3620900000    -1.4688450000
    7      C       0.4574740000     2.7185900000     1.8325550000
    8      H       0.3835740000     2.2993900000     2.8546550000
    9      H      -0.3077260000     3.5178900000     1.7441550000
   10      H       1.4499740000     3.2078900000     1.7441550000
   11      C      -0.1217260000    -2.0067100000     0.0179550000
   12      H       0.8136740000    -2.0064100000    -0.5219450000
   13      H       0.2877740000    -2.7105100000     0.7274550000
   14      H      -0.5953260000    -2.5256100000    -0.8022450000
   15      H       0.4717740000     2.7993900000    -1.1436450000
 ----------------------------------------------------------------

   10    -629.4225818529      6.98e-07  Convergence criterion met
 Total energy in the final basis set =     -629.4225818529
        RIMP2         total energy =      -630.5980849225 a.u.

                    Orbital Energies (a.u.)
 --------------------------------------------------------------

 Alpha MOs
 -- Occupied --
-91.9781 -11.2829 -11.2518 -11.2468 -11.2264 -11.2246 -11.2208  -8.9781
 -6.6591  -6.6586  -6.6579  -1.1610  -1.0564  -0.9959  -0.9442  -0.8817
 -0.7456  -0.7183  -0.6493  -0.5881  -0.5768  -0.5652  -0.5527  -0.5476
 -0.5077  -0.4925  -0.4656  -0.4544  -0.3396  -0.2915

          Ground-State Mulliken Net Atomic Charges

     Atom                 Charge (a.u.)
  ----------------------------------------
      1 C                     0.064066
      2 C                    -0.315427
      3 C                     0.056688
      4 H                     0.179153
      5 C                    -0.273701
      6 S                    -0.002945
      7 C                    -0.272827
      8 H                     0.101396
      9 H                     0.107383
     10 H                     0.107214
     11 C                    -0.375707
     12 H                     0.135212
     13 H                     0.161331
     14 H                     0.134537
     15 H                     0.193628
  ----------------------------------------
  Sum of atomic charges =     0.000000

                    Cartesian Multipole Moments
 -----------------------------------------------------------------
    Charge (ESU x 10^10)
                -0.0000
    Dipole Moment (Debye)
         X       0.8257      Y      -0.5410      Z       1.0806
       Tot       1.4636
    Quadrupole Moments (Debye-Ang)
        XX     -54.1222     XY       0.1654     YY     -42.0494
        XZ       0.3566     YZ       0.8927     ZZ     -48.6856

 Total job time:  156.24s(wall), 154.93s(cpu)
        *  Thank you very much for using Q-Chem.  Have a nice day.  *
