 Q-Chem 5.4, Q-Chem, Inc., Pleasanton, CA (2021)
 Q-Chem 5.4.0 for Intel X86 EM64T Linux

User input:
--------------------------------------------------------------
$molecule
0 1
C	-0.514964	-0.333972	0.016441
C	0.146636	0.221128	1.115841
C	1.206736	1.110628	0.793141
H	-0.135864	-0.015972	2.152541
C	1.375836	1.252428	-0.596059
S	0.206936	0.271728	-1.470359
C	2.040036	1.809828	1.831041
H	1.713936	1.536228	2.853141
H	1.967636	2.914028	1.742641
H	3.114836	1.546728	1.742641
C	-0.514964	-1.774672	0.016441
H	-1.578564	-1.774872	-0.171259
H	-0.657264	-2.478472	0.823141
H	-0.350464	-2.293572	-0.916259
H	2.102936	1.862628	-1.145159
$end

$rem
JOBTYPE		SP
EXCHANGE	HF
CORRELATION	pRIMP2
BASIS		cc-pvtz
METHOD		rimp2
AUX_BASIS	rimp2-cc-pvtz
SOLVENT_METHOD	PCM
PURECART	11111
SYMMETRY	false
MEM_TOTAL	110000
SCF_CONVERGENCE = 6
THRESH=10
$end

$solvent
dielectric 4.90
$end
--------------------------------------------------------------

             Standard Nuclear Orientation (Angstroms)
    I     Atom           X                Y                Z
 ----------------------------------------------------------------
    1      C      -0.5149640000    -0.3339720000     0.0164410000
    2      C       0.1466360000     0.2211280000     1.1158410000
    3      C       1.2067360000     1.1106280000     0.7931410000
    4      H      -0.1358640000    -0.0159720000     2.1525410000
    5      C       1.3758360000     1.2524280000    -0.5960590000
    6      S       0.2069360000     0.2717280000    -1.4703590000
    7      C       2.0400360000     1.8098280000     1.8310410000
    8      H       1.7139360000     1.5362280000     2.8531410000
    9      H       1.9676360000     2.9140280000     1.7426410000
   10      H       3.1148360000     1.5467280000     1.7426410000
   11      C      -0.5149640000    -1.7746720000     0.0164410000
   12      H      -1.5785640000    -1.7748720000    -0.1712590000
   13      H      -0.6572640000    -2.4784720000     0.8231410000
   14      H      -0.3504640000    -2.2935720000    -0.9162590000
   15      H       2.1029360000     1.8626280000    -1.1451590000
 ----------------------------------------------------------------

   11    -629.3596113736      4.03e-07  Convergence criterion met
 Total energy in the final basis set =     -629.3596113736
        RIMP2         total energy =      -630.5489839369 a.u.

                    Orbital Energies (a.u.)
 --------------------------------------------------------------

 Alpha MOs
 -- Occupied --
-91.9745 -11.2697 -11.2559 -11.2476 -11.2408 -11.2275 -11.2073  -8.9751
 -6.6560  -6.6552  -6.6548  -1.1668  -1.0540  -0.9956  -0.9415  -0.8813
 -0.7483  -0.7249  -0.6430  -0.5862  -0.5747  -0.5675  -0.5530  -0.5433
 -0.5153  -0.4902  -0.4579  -0.4341  -0.3359  -0.2843

          Ground-State Mulliken Net Atomic Charges

     Atom                 Charge (a.u.)
  ----------------------------------------
      1 C                    -0.058343
      2 C                    -0.186862
      3 C                     0.016136
      4 H                     0.182249
      5 C                    -0.220849
      6 S                     0.006382
      7 C                    -0.269954
      8 H                     0.101445
      9 H                     0.106815
     10 H                     0.104754
     11 C                    -0.389159
     12 H                     0.125301
     13 H                     0.150849
     14 H                     0.135574
     15 H                     0.195663
  ----------------------------------------
  Sum of atomic charges =     0.000000

                    Cartesian Multipole Moments
 -----------------------------------------------------------------
    Charge (ESU x 10^10)
                -0.0000
    Dipole Moment (Debye)
         X       1.0787      Y      -0.0364      Z       1.5256
       Tot       1.8688
    Quadrupole Moments (Debye-Ang)
        XX     -49.1784     XY       5.6974     YY     -48.2393
        XZ      -0.2579     YZ       0.1091     ZZ     -47.8598

 Total job time:  170.05s(wall), 168.67s(cpu)
        *  Thank you very much for using Q-Chem.  Have a nice day.  *
