 Q-Chem 5.4, Q-Chem, Inc., Pleasanton, CA (2021)
 Q-Chem 5.4.0 for Intel X86 EM64T Linux

User input:
--------------------------------------------------------------
$molecule
0 1
C	-0.342101	-0.485419	0.018946
C	0.089699	0.262481	1.118346
C	0.781699	1.460981	0.795646
H	-0.094701	-0.056919	2.155046
C	0.891999	1.652081	-0.593554
S	0.129099	0.330681	-1.467854
C	1.325599	2.402981	1.833546
H	1.112799	2.034381	2.855646
H	0.879899	3.415781	1.745146
H	2.425599	2.523381	1.745146
C	-0.342101	-1.926119	0.018946
H	0.197999	-1.926319	-0.916254
H	-1.051501	-2.629919	-0.390654
H	0.478099	-2.445019	0.492546
H	1.366699	2.474081	-1.142654
$end

$rem
JOBTYPE		SP
EXCHANGE	HF
CORRELATION	pRIMP2
BASIS		cc-pvtz
METHOD		rimp2
AUX_BASIS	rimp2-cc-pvtz
SOLVENT_METHOD	PCM
PURECART	11111
SYMMETRY	false
MEM_TOTAL	110000
SCF_CONVERGENCE = 6
THRESH=10
$end

$solvent
dielectric 4.90
$end
--------------------------------------------------------------

   10    -629.4028229908      5.75e-07  Convergence criterion met
 Total energy in the final basis set =     -629.4028229908
        RIMP2         total energy =      -630.5838282472 a.u.
 Total job time:  159.23s(wall), 158.68s(cpu)
        *  Thank you very much for using Q-Chem.  Have a nice day.  *
 Q-Chem 5.4, Q-Chem, Inc., Pleasanton, CA (2021)
 Q-Chem 5.4.0 for Intel X86 EM64T Linux

User input:
--------------------------------------------------------------
$molecule
0 1
C	-0.342101	-0.485419	0.018946
C	0.089699	0.262481	1.118346
C	0.781699	1.460981	0.795646
H	-0.094701	-0.056919	2.155046
C	0.891999	1.652081	-0.593554
S	0.129099	0.330681	-1.467854
C	1.325599	2.402981	1.833546
H	1.112799	2.034381	2.855646
H	0.879899	3.415781	1.745146
H	2.425599	2.523381	1.745146
C	-0.342101	-1.926119	0.018946
H	0.197999	-1.926319	-0.916254
H	-1.051501	-2.629919	-0.390654
H	0.478099	-2.445019	0.492546
H	1.366699	2.474081	-1.142654
$end

$rem
JOBTYPE		SP
EXCHANGE	HF
CORRELATION	pRIMP2
BASIS		cc-pvtz
METHOD		rimp2
AUX_BASIS	rimp2-cc-pvtz
SOLVENT_METHOD	PCM
PURECART	11111
SYMMETRY	false
MEM_TOTAL	110000
SCF_CONVERGENCE = 6
THRESH=10
$end

$solvent
dielectric 4.90
$end
--------------------------------------------------------------

             Standard Nuclear Orientation (Angstroms)
    I     Atom           X                Y                Z
 ----------------------------------------------------------------
    1      C      -0.3421010000    -0.4854190000     0.0189460000
    2      C       0.0896990000     0.2624810000     1.1183460000
    3      C       0.7816990000     1.4609810000     0.7956460000
    4      H      -0.0947010000    -0.0569190000     2.1550460000
    5      C       0.8919990000     1.6520810000    -0.5935540000
    6      S       0.1290990000     0.3306810000    -1.4678540000
    7      C       1.3255990000     2.4029810000     1.8335460000
    8      H       1.1127990000     2.0343810000     2.8556460000
    9      H       0.8798990000     3.4157810000     1.7451460000
   10      H       2.4255990000     2.5233810000     1.7451460000
   11      C      -0.3421010000    -1.9261190000     0.0189460000
   12      H       0.1979990000    -1.9263190000    -0.9162540000
   13      H      -1.0515010000    -2.6299190000    -0.3906540000
   14      H       0.4780990000    -2.4450190000     0.4925460000
   15      H       1.3666990000     2.4740810000    -1.1426540000
 ----------------------------------------------------------------

   10    -629.4028229908      5.75e-07  Convergence criterion met
 Total energy in the final basis set =     -629.4028229908
        RIMP2         total energy =      -630.5838282472 a.u.

                    Orbital Energies (a.u.)
 --------------------------------------------------------------

 Alpha MOs
 -- Occupied --
-91.9759 -11.2716 -11.2610 -11.2471 -11.2337 -11.2272 -11.2138  -8.9765
 -6.6574  -6.6568  -6.6562  -1.1642  -1.0558  -0.9946  -0.9446  -0.8804
 -0.7489  -0.7205  -0.6460  -0.5905  -0.5777  -0.5654  -0.5515  -0.5481
 -0.5106  -0.4848  -0.4632  -0.4442  -0.3380  -0.2986

          Ground-State Mulliken Net Atomic Charges

     Atom                 Charge (a.u.)
  ----------------------------------------
      1 C                     0.030066
      2 C                    -0.273024
      3 C                     0.047997
      4 H                     0.179261
      5 C                    -0.248865
      6 S                    -0.004790
      7 C                    -0.270732
      8 H                     0.101714
      9 H                     0.107502
     10 H                     0.106185
     11 C                    -0.375385
     12 H                     0.128718
     13 H                     0.140430
     14 H                     0.136590
     15 H                     0.194333
  ----------------------------------------
  Sum of atomic charges =     0.000000

                    Cartesian Multipole Moments
 -----------------------------------------------------------------
    Charge (ESU x 10^10)
                -0.0000
    Dipole Moment (Debye)
         X       1.2060      Y      -0.0374      Z       0.9958
       Tot       1.5645
    Quadrupole Moments (Debye-Ang)
        XX     -52.0933     XY       3.2127     YY     -44.7945
        XZ       0.4611     YZ       1.3981     ZZ     -48.5636

 Total job time:  159.60s(wall), 157.27s(cpu)
        *  Thank you very much for using Q-Chem.  Have a nice day.  *
