 Q-Chem 5.4, Q-Chem, Inc., Pleasanton, CA (2021)
 Q-Chem 5.4.0 for Intel X86 EM64T Linux

User input:
--------------------------------------------------------------
$molecule
0 1
C	-0.227649	-0.535397	0.012833
C	0.067751	0.276103	1.112233
C	0.541051	1.576503	0.789533
H	-0.058349	-0.070397	2.148933
C	0.616551	1.783903	-0.599667
S	0.094651	0.350203	-1.473967
C	0.913151	2.598703	1.827433
H	0.767551	2.198703	2.849533
H	0.298351	3.518703	1.739033
H	1.975551	2.908303	1.739033
C	-0.227649	-1.976097	0.012833
H	-1.242549	-1.975797	0.382133
H	-0.507749	-2.679897	-0.756967
H	0.096251	-2.494997	0.902833
H	0.941251	2.675903	-1.148767
$end

$rem
JOBTYPE		SP
EXCHANGE	HF
CORRELATION	pRIMP2
BASIS		cc-pvtz
METHOD		rimp2
AUX_BASIS	rimp2-cc-pvtz
SOLVENT_METHOD	PCM
PURECART	11111
SYMMETRY	false
MEM_TOTAL	110000
SCF_CONVERGENCE = 6
THRESH=10
$end

$solvent
dielectric 4.90
$end
--------------------------------------------------------------

   10    -629.4134529162      6.18e-07  Convergence criterion met
 Total energy in the final basis set =     -629.4134529162
        RIMP2         total energy =      -630.5922610406 a.u.
 Total job time:  157.38s(wall), 156.31s(cpu)
        *  Thank you very much for using Q-Chem.  Have a nice day.  *
 Q-Chem 5.4, Q-Chem, Inc., Pleasanton, CA (2021)
 Q-Chem 5.4.0 for Intel X86 EM64T Linux

User input:
--------------------------------------------------------------
$molecule
0 1
C	-0.227649	-0.535397	0.012833
C	0.067751	0.276103	1.112233
C	0.541051	1.576503	0.789533
H	-0.058349	-0.070397	2.148933
C	0.616551	1.783903	-0.599667
S	0.094651	0.350203	-1.473967
C	0.913151	2.598703	1.827433
H	0.767551	2.198703	2.849533
H	0.298351	3.518703	1.739033
H	1.975551	2.908303	1.739033
C	-0.227649	-1.976097	0.012833
H	-1.242549	-1.975797	0.382133
H	-0.507749	-2.679897	-0.756967
H	0.096251	-2.494997	0.902833
H	0.941251	2.675903	-1.148767
$end

$rem
JOBTYPE		SP
EXCHANGE	HF
CORRELATION	pRIMP2
BASIS		cc-pvtz
METHOD		rimp2
AUX_BASIS	rimp2-cc-pvtz
SOLVENT_METHOD	PCM
PURECART	11111
SYMMETRY	false
MEM_TOTAL	110000
SCF_CONVERGENCE = 6
THRESH=10
$end

$solvent
dielectric 4.90
$end
--------------------------------------------------------------

             Standard Nuclear Orientation (Angstroms)
    I     Atom           X                Y                Z
 ----------------------------------------------------------------
    1      C      -0.2276490000    -0.5353970000     0.0128330000
    2      C       0.0677510000     0.2761030000     1.1122330000
    3      C       0.5410510000     1.5765030000     0.7895330000
    4      H      -0.0583490000    -0.0703970000     2.1489330000
    5      C       0.6165510000     1.7839030000    -0.5996670000
    6      S       0.0946510000     0.3502030000    -1.4739670000
    7      C       0.9131510000     2.5987030000     1.8274330000
    8      H       0.7675510000     2.1987030000     2.8495330000
    9      H       0.2983510000     3.5187030000     1.7390330000
   10      H       1.9755510000     2.9083030000     1.7390330000
   11      C      -0.2276490000    -1.9760970000     0.0128330000
   12      H      -1.2425490000    -1.9757970000     0.3821330000
   13      H      -0.5077490000    -2.6798970000    -0.7569670000
   14      H       0.0962510000    -2.4949970000     0.9028330000
   15      H       0.9412510000     2.6759030000    -1.1487670000
 ----------------------------------------------------------------

   10    -629.4134529162      6.18e-07  Convergence criterion met
 Total energy in the final basis set =     -629.4134529162
        RIMP2         total energy =      -630.5922610406 a.u.

                    Orbital Energies (a.u.)
 --------------------------------------------------------------

 Alpha MOs
 -- Occupied --
-91.9762 -11.2811 -11.2516 -11.2474 -11.2275 -11.2267 -11.2185  -8.9762
 -6.6571  -6.6565  -6.6560  -1.1606  -1.0551  -0.9978  -0.9407  -0.8833
 -0.7431  -0.7202  -0.6465  -0.5888  -0.5746  -0.5694  -0.5556  -0.5442
 -0.5101  -0.4936  -0.4608  -0.4503  -0.3375  -0.2888

          Ground-State Mulliken Net Atomic Charges

     Atom                 Charge (a.u.)
  ----------------------------------------
      1 C                     0.055827
      2 C                    -0.309257
      3 C                     0.053701
      4 H                     0.175340
      5 C                    -0.270854
      6 S                     0.002436
      7 C                    -0.272375
      8 H                     0.101271
      9 H                     0.107210
     10 H                     0.107163
     11 C                    -0.383265
     12 H                     0.137654
     13 H                     0.161030
     14 H                     0.142881
     15 H                     0.191237
  ----------------------------------------
  Sum of atomic charges =     0.000000

                    Cartesian Multipole Moments
 -----------------------------------------------------------------
    Charge (ESU x 10^10)
                -0.0000
    Dipole Moment (Debye)
         X      -0.2654      Y      -0.5747      Z       1.7060
       Tot       1.8196
    Quadrupole Moments (Debye-Ang)
        XX     -53.0572     XY       4.3565     YY     -43.0634
        XZ       0.2692     YZ      -0.0375     ZZ     -48.5420

 Total job time:  157.67s(wall), 156.49s(cpu)
        *  Thank you very much for using Q-Chem.  Have a nice day.  *
