 Q-Chem 5.4, Q-Chem, Inc., Pleasanton, CA (2021)
 Q-Chem 5.4.0 for Intel X86 EM64T Linux

User input:
--------------------------------------------------------------
$molecule
0 1
C	-0.234936	-0.535395	0.018946
C	0.060464	0.276105	1.118346
C	0.533764	1.576505	0.795646
H	-0.065636	-0.070395	2.155046
C	0.609264	1.783905	-0.593554
S	0.087364	0.350205	-1.467854
C	0.905864	2.598705	1.833546
H	0.760264	2.198705	2.855646
H	0.291064	3.518705	1.745146
H	1.968264	2.908305	1.745146
C	-0.234936	-1.976095	0.018946
H	0.305164	-1.976295	-0.916254
H	-0.944336	-2.679895	-0.390654
H	0.585264	-2.494995	0.492546
H	0.933964	2.675905	-1.142654
$end

$rem
JOBTYPE		SP
EXCHANGE	HF
CORRELATION	pRIMP2
BASIS		cc-pvtz
METHOD		rimp2
AUX_BASIS	rimp2-cc-pvtz
SOLVENT_METHOD	PCM
PURECART	11111
SYMMETRY	false
MEM_TOTAL	110000
SCF_CONVERGENCE = 6
THRESH=10
$end

$solvent
dielectric 4.90
$end
--------------------------------------------------------------

   10    -629.4139501027      5.86e-07  Convergence criterion met
 Total energy in the final basis set =     -629.4139501027
        RIMP2         total energy =      -630.5926338682 a.u.
 Total job time:  159.16s(wall), 158.01s(cpu)
        *  Thank you very much for using Q-Chem.  Have a nice day.  *
 Q-Chem 5.4, Q-Chem, Inc., Pleasanton, CA (2021)
 Q-Chem 5.4.0 for Intel X86 EM64T Linux

User input:
--------------------------------------------------------------
$molecule
0 1
C	-0.234936	-0.535395	0.018946
C	0.060464	0.276105	1.118346
C	0.533764	1.576505	0.795646
H	-0.065636	-0.070395	2.155046
C	0.609264	1.783905	-0.593554
S	0.087364	0.350205	-1.467854
C	0.905864	2.598705	1.833546
H	0.760264	2.198705	2.855646
H	0.291064	3.518705	1.745146
H	1.968264	2.908305	1.745146
C	-0.234936	-1.976095	0.018946
H	0.305164	-1.976295	-0.916254
H	-0.944336	-2.679895	-0.390654
H	0.585264	-2.494995	0.492546
H	0.933964	2.675905	-1.142654
$end

$rem
JOBTYPE		SP
EXCHANGE	HF
CORRELATION	pRIMP2
BASIS		cc-pvtz
METHOD		rimp2
AUX_BASIS	rimp2-cc-pvtz
SOLVENT_METHOD	PCM
PURECART	11111
SYMMETRY	false
MEM_TOTAL	110000
SCF_CONVERGENCE = 6
THRESH=10
$end

$solvent
dielectric 4.90
$end
--------------------------------------------------------------

             Standard Nuclear Orientation (Angstroms)
    I     Atom           X                Y                Z
 ----------------------------------------------------------------
    1      C      -0.2349360000    -0.5353950000     0.0189460000
    2      C       0.0604640000     0.2761050000     1.1183460000
    3      C       0.5337640000     1.5765050000     0.7956460000
    4      H      -0.0656360000    -0.0703950000     2.1550460000
    5      C       0.6092640000     1.7839050000    -0.5935540000
    6      S       0.0873640000     0.3502050000    -1.4678540000
    7      C       0.9058640000     2.5987050000     1.8335460000
    8      H       0.7602640000     2.1987050000     2.8556460000
    9      H       0.2910640000     3.5187050000     1.7451460000
   10      H       1.9682640000     2.9083050000     1.7451460000
   11      C      -0.2349360000    -1.9760950000     0.0189460000
   12      H       0.3051640000    -1.9762950000    -0.9162540000
   13      H      -0.9443360000    -2.6798950000    -0.3906540000
   14      H       0.5852640000    -2.4949950000     0.4925460000
   15      H       0.9339640000     2.6759050000    -1.1426540000
 ----------------------------------------------------------------

   10    -629.4139501027      5.86e-07  Convergence criterion met
 Total energy in the final basis set =     -629.4139501027
        RIMP2         total energy =      -630.5926338682 a.u.

                    Orbital Energies (a.u.)
 --------------------------------------------------------------

 Alpha MOs
 -- Occupied --
-91.9775 -11.2754 -11.2579 -11.2470 -11.2307 -11.2270 -11.2158  -8.9777
 -6.6587  -6.6581  -6.6575  -1.1623  -1.0556  -0.9951  -0.9452  -0.8811
 -0.7479  -0.7194  -0.6470  -0.5911  -0.5767  -0.5657  -0.5520  -0.5478
 -0.5092  -0.4872  -0.4639  -0.4463  -0.3386  -0.2991

          Ground-State Mulliken Net Atomic Charges

     Atom                 Charge (a.u.)
  ----------------------------------------
      1 C                     0.048745
      2 C                    -0.286110
      3 C                     0.051343
      4 H                     0.179685
      5 C                    -0.257755
      6 S                    -0.003947
      7 C                    -0.271685
      8 H                     0.101695
      9 H                     0.107398
     10 H                     0.106643
     11 C                    -0.373949
     12 H                     0.124084
     13 H                     0.144511
     14 H                     0.135076
     15 H                     0.194267
  ----------------------------------------
  Sum of atomic charges =     0.000000

                    Cartesian Multipole Moments
 -----------------------------------------------------------------
    Charge (ESU x 10^10)
                -0.0000
    Dipole Moment (Debye)
         X       0.8777      Y      -0.1068      Z       0.9474
       Tot       1.2959
    Quadrupole Moments (Debye-Ang)
        XX     -53.0827     XY       2.1976     YY     -43.3471
        XZ       0.4357     YZ       1.4513     ZZ     -48.6831

 Total job time:  156.14s(wall), 155.39s(cpu)
        *  Thank you very much for using Q-Chem.  Have a nice day.  *
