 Q-Chem 5.4, Q-Chem, Inc., Pleasanton, CA (2021)
 Q-Chem 5.4.0 for Intel X86 EM64T Linux

User input:
--------------------------------------------------------------
$molecule
0 1
C	-0.335263	-0.485421	0.012109
C	0.096537	0.262479	1.111509
C	0.788537	1.460979	0.788809
H	-0.087863	-0.056921	2.148209
C	0.898837	1.652079	-0.600391
S	0.135937	0.330679	-1.474691
C	1.332437	2.402979	1.826709
H	1.119637	2.034379	2.848809
H	0.886737	3.415779	1.738309
H	2.432437	2.523379	1.738309
C	-0.335263	-1.926121	0.012109
H	-1.270663	-1.925821	0.552009
H	-0.744763	-2.629921	-0.697391
H	0.138337	-2.445021	0.832309
H	1.373537	2.474079	-1.149491
$end

$rem
JOBTYPE		SP
EXCHANGE	HF
CORRELATION	pRIMP2
BASIS		cc-pvtz
METHOD		rimp2
AUX_BASIS	rimp2-cc-pvtz
SOLVENT_METHOD	PCM
PURECART	11111
SYMMETRY	false
MEM_TOTAL	110000
SCF_CONVERGENCE = 6
THRESH=10
$end

$solvent
dielectric 4.90
$end
--------------------------------------------------------------

   10    -629.4027011910      5.58e-07  Convergence criterion met
 Total energy in the final basis set =     -629.4027011910
        RIMP2         total energy =      -630.5847115676 a.u.
 Total job time:  156.58s(wall), 155.06s(cpu)
        *  Thank you very much for using Q-Chem.  Have a nice day.  *
 Q-Chem 5.4, Q-Chem, Inc., Pleasanton, CA (2021)
 Q-Chem 5.4.0 for Intel X86 EM64T Linux

User input:
--------------------------------------------------------------
$molecule
0 1
C	-0.335263	-0.485421	0.012109
C	0.096537	0.262479	1.111509
C	0.788537	1.460979	0.788809
H	-0.087863	-0.056921	2.148209
C	0.898837	1.652079	-0.600391
S	0.135937	0.330679	-1.474691
C	1.332437	2.402979	1.826709
H	1.119637	2.034379	2.848809
H	0.886737	3.415779	1.738309
H	2.432437	2.523379	1.738309
C	-0.335263	-1.926121	0.012109
H	-1.270663	-1.925821	0.552009
H	-0.744763	-2.629921	-0.697391
H	0.138337	-2.445021	0.832309
H	1.373537	2.474079	-1.149491
$end

$rem
JOBTYPE		SP
EXCHANGE	HF
CORRELATION	pRIMP2
BASIS		cc-pvtz
METHOD		rimp2
AUX_BASIS	rimp2-cc-pvtz
SOLVENT_METHOD	PCM
PURECART	11111
SYMMETRY	false
MEM_TOTAL	110000
SCF_CONVERGENCE = 6
THRESH=10
$end

$solvent
dielectric 4.90
$end
--------------------------------------------------------------

             Standard Nuclear Orientation (Angstroms)
    I     Atom           X                Y                Z
 ----------------------------------------------------------------
    1      C      -0.3352630000    -0.4854210000     0.0121090000
    2      C       0.0965370000     0.2624790000     1.1115090000
    3      C       0.7885370000     1.4609790000     0.7888090000
    4      H      -0.0878630000    -0.0569210000     2.1482090000
    5      C       0.8988370000     1.6520790000    -0.6003910000
    6      S       0.1359370000     0.3306790000    -1.4746910000
    7      C       1.3324370000     2.4029790000     1.8267090000
    8      H       1.1196370000     2.0343790000     2.8488090000
    9      H       0.8867370000     3.4157790000     1.7383090000
   10      H       2.4324370000     2.5233790000     1.7383090000
   11      C      -0.3352630000    -1.9261210000     0.0121090000
   12      H      -1.2706630000    -1.9258210000     0.5520090000
   13      H      -0.7447630000    -2.6299210000    -0.6973910000
   14      H       0.1383370000    -2.4450210000     0.8323090000
   15      H       1.3735370000     2.4740790000    -1.1494910000
 ----------------------------------------------------------------

   10    -629.4027011910      5.58e-07  Convergence criterion met
 Total energy in the final basis set =     -629.4027011910
        RIMP2         total energy =      -630.5847115676 a.u.

                    Orbital Energies (a.u.)
 --------------------------------------------------------------

 Alpha MOs
 -- Occupied --
-91.9744 -11.2749 -11.2566 -11.2478 -11.2324 -11.2272 -11.2155  -8.9747
 -6.6556  -6.6549  -6.6544  -1.1620  -1.0544  -0.9979  -0.9397  -0.8835
 -0.7434  -0.7221  -0.6454  -0.5883  -0.5767  -0.5669  -0.5567  -0.5435
 -0.5119  -0.4924  -0.4604  -0.4423  -0.3371  -0.2905

          Ground-State Mulliken Net Atomic Charges

     Atom                 Charge (a.u.)
  ----------------------------------------
      1 C                     0.032959
      2 C                    -0.286888
      3 C                     0.046009
      4 H                     0.176410
      5 C                    -0.254392
      6 S                     0.001688
      7 C                    -0.271131
      8 H                     0.101274
      9 H                     0.107129
     10 H                     0.106773
     11 C                    -0.384241
     12 H                     0.133121
     13 H                     0.156963
     14 H                     0.143070
     15 H                     0.191256
  ----------------------------------------
  Sum of atomic charges =     0.000000

                    Cartesian Multipole Moments
 -----------------------------------------------------------------
    Charge (ESU x 10^10)
                -0.0000
    Dipole Moment (Debye)
         X       0.1401      Y      -0.3430      Z       1.8741
       Tot       1.9104
    Quadrupole Moments (Debye-Ang)
        XX     -51.7827     XY       5.2162     YY     -44.5464
        XZ       0.3183     YZ      -0.2987     ZZ     -48.5030

 Total job time:  156.27s(wall), 155.18s(cpu)
        *  Thank you very much for using Q-Chem.  Have a nice day.  *
