 Q-Chem 5.4, Q-Chem, Inc., Pleasanton, CA (2021)
 Q-Chem 5.4.0 for Intel X86 EM64T Linux

User input:
--------------------------------------------------------------
$molecule
0 1
C	-0.113057	-0.566010	0.016152
C	0.036943	0.284490	1.115552
C	0.277243	1.647390	0.792852
H	-0.027157	-0.078710	2.152252
C	0.315643	1.864690	-0.596348
S	0.050643	0.362090	-1.470648
C	0.466143	2.718590	1.830752
H	0.392243	2.299390	2.852852
H	-0.299057	3.517890	1.742352
H	1.458643	3.207890	1.742352
C	-0.113057	-2.006710	0.016152
H	-1.127857	-2.006410	-0.353348
H	0.167143	-2.710510	-0.753648
H	-0.436957	-2.525610	0.906152
H	0.480443	2.799390	-1.145448
$end

$rem
JOBTYPE		SP
EXCHANGE	HF
CORRELATION	pRIMP2
BASIS		cc-pvtz
METHOD		rimp2
AUX_BASIS	rimp2-cc-pvtz
SOLVENT_METHOD	PCM
PURECART	11111
SYMMETRY	false
MEM_TOTAL	110000
SCF_CONVERGENCE = 6
THRESH=10
$end

$solvent
dielectric 4.90
$end
--------------------------------------------------------------

             Standard Nuclear Orientation (Angstroms)
    I     Atom           X                Y                Z
 ----------------------------------------------------------------
    1      C      -0.1130570000    -0.5660100000     0.0161520000
    2      C       0.0369430000     0.2844900000     1.1155520000
    3      C       0.2772430000     1.6473900000     0.7928520000
    4      H      -0.0271570000    -0.0787100000     2.1522520000
    5      C       0.3156430000     1.8646900000    -0.5963480000
    6      S       0.0506430000     0.3620900000    -1.4706480000
    7      C       0.4661430000     2.7185900000     1.8307520000
    8      H       0.3922430000     2.2993900000     2.8528520000
    9      H      -0.2990570000     3.5178900000     1.7423520000
   10      H       1.4586430000     3.2078900000     1.7423520000
   11      C      -0.1130570000    -2.0067100000     0.0161520000
   12      H      -1.1278570000    -2.0064100000    -0.3533480000
   13      H       0.1671430000    -2.7105100000    -0.7536480000
   14      H      -0.4369570000    -2.5256100000     0.9061520000
   15      H       0.4804430000     2.7993900000    -1.1454480000
 ----------------------------------------------------------------

   10    -629.4209411720      6.52e-07  Convergence criterion met
 Total energy in the final basis set =     -629.4209411720
        RIMP2         total energy =      -630.5971678230 a.u.

                    Orbital Energies (a.u.)
 --------------------------------------------------------------

 Alpha MOs
 -- Occupied --
-91.9777 -11.2831 -11.2510 -11.2469 -11.2265 -11.2251 -11.2204  -8.9776
 -6.6586  -6.6581  -6.6575  -1.1602  -1.0558  -0.9968  -0.9433  -0.8825
 -0.7448  -0.7186  -0.6472  -0.5895  -0.5748  -0.5703  -0.5504  -0.5468
 -0.5089  -0.4918  -0.4633  -0.4556  -0.3386  -0.2899

          Ground-State Mulliken Net Atomic Charges

     Atom                 Charge (a.u.)
  ----------------------------------------
      1 C                     0.043207
      2 C                    -0.278898
      3 C                     0.038637
      4 H                     0.180628
      5 C                    -0.269215
      6 S                    -0.008379
      7 C                    -0.273748
      8 H                     0.101221
      9 H                     0.107147
     10 H                     0.107199
     11 C                    -0.374292
     12 H                     0.134665
     13 H                     0.159380
     14 H                     0.138776
     15 H                     0.193674
  ----------------------------------------
  Sum of atomic charges =     0.000000

                    Cartesian Multipole Moments
 -----------------------------------------------------------------
    Charge (ESU x 10^10)
                -0.0000
    Dipole Moment (Debye)
         X      -0.4753      Y      -0.5832      Z       1.1960
       Tot       1.4130
    Quadrupole Moments (Debye-Ang)
        XX     -53.9561     XY       2.9262     YY     -42.0379
        XZ      -0.1484     YZ       0.9327     ZZ     -48.5992

 Total job time:  157.83s(wall), 154.82s(cpu)
        *  Thank you very much for using Q-Chem.  Have a nice day.  *
