 Q-Chem 5.4, Q-Chem, Inc., Pleasanton, CA (2021)
 Q-Chem 5.4.0 for Intel X86 EM64T Linux

User input:
--------------------------------------------------------------
$molecule
0 1
C	-0.180330	-0.553189	0.016151
C	0.043170	0.281011	1.115551
C	0.401370	1.617711	0.792851
H	-0.052230	-0.075289	2.152251
C	0.458570	1.830811	-0.596349
S	0.063570	0.357111	-1.470649
C	0.682970	2.668411	1.830751
H	0.572770	2.257311	2.852851
H	-0.009630	3.531411	1.742351
H	1.714270	3.069411	1.742351
C	-0.180330	-1.993889	0.016151
H	0.834570	-1.994089	-0.353149
H	-0.460430	-2.697689	-0.753649
H	0.143570	-2.512789	0.906151
H	0.704270	2.747711	-1.145449
$end

$rem
JOBTYPE		SP
EXCHANGE	HF
CORRELATION	pRIMP2
BASIS		cc-pvtz
METHOD		rimp2
AUX_BASIS	rimp2-cc-pvtz
SOLVENT_METHOD	PCM
PURECART	11111
SYMMETRY	false
MEM_TOTAL	110000
SCF_CONVERGENCE = 6
THRESH=10
$end

$solvent
dielectric 4.90
$end
--------------------------------------------------------------

             Standard Nuclear Orientation (Angstroms)
    I     Atom           X                Y                Z
 ----------------------------------------------------------------
    1      C      -0.1803300000    -0.5531890000     0.0161510000
    2      C       0.0431700000     0.2810110000     1.1155510000
    3      C       0.4013700000     1.6177110000     0.7928510000
    4      H      -0.0522300000    -0.0752890000     2.1522510000
    5      C       0.4585700000     1.8308110000    -0.5963490000
    6      S       0.0635700000     0.3571110000    -1.4706490000
    7      C       0.6829700000     2.6684110000     1.8307510000
    8      H       0.5727700000     2.2573110000     2.8528510000
    9      H      -0.0096300000     3.5314110000     1.7423510000
   10      H       1.7142700000     3.0694110000     1.7423510000
   11      C      -0.1803300000    -1.9938890000     0.0161510000
   12      H       0.8345700000    -1.9940890000    -0.3531490000
   13      H      -0.4604300000    -2.6976890000    -0.7536490000
   14      H       0.1435700000    -2.5127890000     0.9061510000
   15      H       0.7042700000     2.7477110000    -1.1454490000
 ----------------------------------------------------------------

   10    -629.4223187984      6.99e-07  Convergence criterion met
 Total energy in the final basis set =     -629.4223187984
        RIMP2         total energy =      -630.5980783608 a.u.

                    Orbital Energies (a.u.)
 --------------------------------------------------------------

 Alpha MOs
 -- Occupied --
-91.9766 -11.2844 -11.2511 -11.2471 -11.2266 -11.2252 -11.2220  -8.9767
 -6.6578  -6.6572  -6.6566  -1.1616  -1.0566  -0.9965  -0.9427  -0.8820
 -0.7452  -0.7190  -0.6475  -0.5900  -0.5779  -0.5676  -0.5504  -0.5474
 -0.5071  -0.4941  -0.4654  -0.4549  -0.3395  -0.2900

          Ground-State Mulliken Net Atomic Charges

     Atom                 Charge (a.u.)
  ----------------------------------------
      1 C                     0.065953
      2 C                    -0.324188
      3 C                     0.060685
      4 H                     0.178372
      5 C                    -0.276148
      6 S                    -0.005359
      7 C                    -0.272199
      8 H                     0.101358
      9 H                     0.107485
     10 H                     0.107309
     11 C                    -0.374244
     12 H                     0.142773
     13 H                     0.156820
     14 H                     0.138795
     15 H                     0.192587
  ----------------------------------------
  Sum of atomic charges =     0.000000

                    Cartesian Multipole Moments
 -----------------------------------------------------------------
    Charge (ESU x 10^10)
                -0.0000
    Dipole Moment (Debye)
         X       0.9844      Y      -0.6474      Z       1.2161
       Tot       1.6932
    Quadrupole Moments (Debye-Ang)
        XX     -54.0103     XY       0.8788     YY     -42.3679
        XZ       0.3208     YZ       0.9311     ZZ     -48.6510

 Total job time:  155.88s(wall), 155.11s(cpu)
        *  Thank you very much for using Q-Chem.  Have a nice day.  *
