 Q-Chem 5.4, Q-Chem, Inc., Pleasanton, CA (2021)
 Q-Chem 5.4.0 for Intel X86 EM64T Linux

User input:
--------------------------------------------------------------
$molecule
0 1
C	-0.114465	-0.566010	0.011474
C	0.035535	0.284490	1.110874
C	0.275835	1.647390	0.788174
H	-0.028565	-0.078710	2.147574
C	0.314235	1.864690	-0.601026
S	0.049235	0.362090	-1.475326
C	0.464735	2.718590	1.826074
H	0.390835	2.299390	2.848174
H	-0.300465	3.517890	1.737674
H	1.457235	3.207890	1.737674
C	-0.114465	-2.006710	0.011474
H	-0.941865	-2.006410	0.705574
H	-0.640965	-2.710510	-0.616126
H	0.494335	-2.525610	0.736974
H	0.479035	2.799390	-1.150126
$end

$rem
JOBTYPE		SP
EXCHANGE	HF
CORRELATION	pRIMP2
BASIS		cc-pvtz
METHOD		rimp2
AUX_BASIS	rimp2-cc-pvtz
SOLVENT_METHOD	PCM
PURECART	11111
SYMMETRY	false
MEM_TOTAL	110000
SCF_CONVERGENCE = 6
THRESH=10
$end

$solvent
dielectric 4.90
$end
--------------------------------------------------------------

   10    -629.4217154067      5.93e-07  Convergence criterion met
 Total energy in the final basis set =     -629.4217154067
        RIMP2         total energy =      -630.5993145097 a.u.
 Total job time:  156.30s(wall), 154.94s(cpu)
        *  Thank you very much for using Q-Chem.  Have a nice day.  *
 Q-Chem 5.4, Q-Chem, Inc., Pleasanton, CA (2021)
 Q-Chem 5.4.0 for Intel X86 EM64T Linux

User input:
--------------------------------------------------------------
$molecule
0 1
C	-0.114465	-0.566010	0.011474
C	0.035535	0.284490	1.110874
C	0.275835	1.647390	0.788174
H	-0.028565	-0.078710	2.147574
C	0.314235	1.864690	-0.601026
S	0.049235	0.362090	-1.475326
C	0.464735	2.718590	1.826074
H	0.390835	2.299390	2.848174
H	-0.300465	3.517890	1.737674
H	1.457235	3.207890	1.737674
C	-0.114465	-2.006710	0.011474
H	-0.941865	-2.006410	0.705574
H	-0.640965	-2.710510	-0.616126
H	0.494335	-2.525610	0.736974
H	0.479035	2.799390	-1.150126
$end

$rem
JOBTYPE		SP
EXCHANGE	HF
CORRELATION	pRIMP2
BASIS		cc-pvtz
METHOD		rimp2
AUX_BASIS	rimp2-cc-pvtz
SOLVENT_METHOD	PCM
PURECART	11111
SYMMETRY	false
MEM_TOTAL	110000
SCF_CONVERGENCE = 6
THRESH=10
$end

$solvent
dielectric 4.90
$end
--------------------------------------------------------------

             Standard Nuclear Orientation (Angstroms)
    I     Atom           X                Y                Z
 ----------------------------------------------------------------
    1      C      -0.1144650000    -0.5660100000     0.0114740000
    2      C       0.0355350000     0.2844900000     1.1108740000
    3      C       0.2758350000     1.6473900000     0.7881740000
    4      H      -0.0285650000    -0.0787100000     2.1475740000
    5      C       0.3142350000     1.8646900000    -0.6010260000
    6      S       0.0492350000     0.3620900000    -1.4753260000
    7      C       0.4647350000     2.7185900000     1.8260740000
    8      H       0.3908350000     2.2993900000     2.8481740000
    9      H      -0.3004650000     3.5178900000     1.7376740000
   10      H       1.4572350000     3.2078900000     1.7376740000
   11      C      -0.1144650000    -2.0067100000     0.0114740000
   12      H      -0.9418650000    -2.0064100000     0.7055740000
   13      H      -0.6409650000    -2.7105100000    -0.6161260000
   14      H       0.4943350000    -2.5256100000     0.7369740000
   15      H       0.4790350000     2.7993900000    -1.1501260000
 ----------------------------------------------------------------

   10    -629.4217154067      5.93e-07  Convergence criterion met
 Total energy in the final basis set =     -629.4217154067
        RIMP2         total energy =      -630.5993145097 a.u.

                    Orbital Energies (a.u.)
 --------------------------------------------------------------

 Alpha MOs
 -- Occupied --
-91.9762 -11.2820 -11.2517 -11.2473 -11.2283 -11.2269 -11.2189  -8.9762
 -6.6571  -6.6565  -6.6560  -1.1603  -1.0549  -0.9987  -0.9401  -0.8838
 -0.7424  -0.7208  -0.6478  -0.5909  -0.5750  -0.5682  -0.5582  -0.5434
 -0.5095  -0.4903  -0.4646  -0.4474  -0.3373  -0.2936

          Ground-State Mulliken Net Atomic Charges

     Atom                 Charge (a.u.)
  ----------------------------------------
      1 C                     0.068680
      2 C                    -0.297345
      3 C                     0.045527
      4 H                     0.176568
      5 C                    -0.268671
      6 S                    -0.003260
      7 C                    -0.274927
      8 H                     0.101071
      9 H                     0.107182
     10 H                     0.107415
     11 C                    -0.385367
     12 H                     0.134260
     13 H                     0.160580
     14 H                     0.136554
     15 H                     0.191731
  ----------------------------------------
  Sum of atomic charges =     0.000000

                    Cartesian Multipole Moments
 -----------------------------------------------------------------
    Charge (ESU x 10^10)
                -0.0000
    Dipole Moment (Debye)
         X      -0.3278      Y      -0.4909      Z       1.9112
       Tot       2.0003
    Quadrupole Moments (Debye-Ang)
        XX     -53.7081     XY       2.8116     YY     -42.2747
        XZ       0.3218     YZ      -0.4871     ZZ     -48.7180

 Total job time:  156.78s(wall), 155.50s(cpu)
        *  Thank you very much for using Q-Chem.  Have a nice day.  *
