 Q-Chem 5.4, Q-Chem, Inc., Pleasanton, CA (2021)
 Q-Chem 5.4.0 for Intel X86 EM64T Linux

User input:
--------------------------------------------------------------
$molecule
0 1
C	-0.585270	-0.237127	0.010669
C	0.162630	0.194673	1.110069
C	1.361130	0.886573	0.787369
H	-0.156770	0.010273	2.146769
C	1.552230	0.996873	-0.601831
S	0.230930	0.234073	-1.476131
C	2.303230	1.430473	1.825269
H	1.934530	1.217573	2.847369
H	2.423630	2.530373	1.736869
H	3.316030	0.984673	1.736869
C	-0.585270	-1.677827	0.010669
H	-0.954770	-1.678027	1.025469
H	0.184530	-2.381627	0.290869
H	-1.475270	-2.196727	-0.313231
H	2.374330	1.471473	-1.150931
$end

$rem
JOBTYPE		SP
EXCHANGE	HF
CORRELATION	pRIMP2
BASIS		cc-pvtz
METHOD		rimp2
AUX_BASIS	rimp2-cc-pvtz
SOLVENT_METHOD	PCM
PURECART	11111
SYMMETRY	false
MEM_TOTAL	110000
SCF_CONVERGENCE = 6
THRESH=10
$end

$solvent
dielectric 4.90
$end
--------------------------------------------------------------

             Standard Nuclear Orientation (Angstroms)
    I     Atom           X                Y                Z
 ----------------------------------------------------------------
    1      C      -0.5852700000    -0.2371270000     0.0106690000
    2      C       0.1626300000     0.1946730000     1.1100690000
    3      C       1.3611300000     0.8865730000     0.7873690000
    4      H      -0.1567700000     0.0102730000     2.1467690000
    5      C       1.5522300000     0.9968730000    -0.6018310000
    6      S       0.2309300000     0.2340730000    -1.4761310000
    7      C       2.3032300000     1.4304730000     1.8252690000
    8      H       1.9345300000     1.2175730000     2.8473690000
    9      H       2.4236300000     2.5303730000     1.7368690000
   10      H       3.3160300000     0.9846730000     1.7368690000
   11      C      -0.5852700000    -1.6778270000     0.0106690000
   12      H      -0.9547700000    -1.6780270000     1.0254690000
   13      H       0.1845300000    -2.3816270000     0.2908690000
   14      H      -1.4752700000    -2.1967270000    -0.3132310000
   15      H       2.3743300000     1.4714730000    -1.1509310000
 ----------------------------------------------------------------

   10    -629.3512778410      9.58e-07  Convergence criterion met
 Total energy in the final basis set =     -629.3512778410
        RIMP2         total energy =      -630.5419271163 a.u.

                    Orbital Energies (a.u.)
 --------------------------------------------------------------

 Alpha MOs
 -- Occupied --
-91.9717 -11.2849 -11.2563 -11.2498 -11.2412 -11.2297 -11.2075  -8.9728
 -6.6536  -6.6526  -6.6525  -1.1743  -1.0560  -1.0016  -0.9345  -0.8837
 -0.7485  -0.7346  -0.6450  -0.5882  -0.5850  -0.5692  -0.5526  -0.5430
 -0.5212  -0.4751  -0.4584  -0.4156  -0.3347  -0.3065

          Ground-State Mulliken Net Atomic Charges

     Atom                 Charge (a.u.)
  ----------------------------------------
      1 C                    -0.109052
      2 C                    -0.115732
      3 C                    -0.024464
      4 H                     0.183357
      5 C                    -0.176278
      6 S                     0.009942
      7 C                    -0.267132
      8 H                     0.102049
      9 H                     0.106841
     10 H                     0.104994
     11 C                    -0.357539
     12 H                     0.097798
     13 H                     0.137948
     14 H                     0.109424
     15 H                     0.197841
  ----------------------------------------
  Sum of atomic charges =     0.000000

                    Cartesian Multipole Moments
 -----------------------------------------------------------------
    Charge (ESU x 10^10)
                -0.0000
    Dipole Moment (Debye)
         X       2.3922      Y       0.3247      Z       2.2894
       Tot       3.3271
    Quadrupole Moments (Debye-Ang)
        XX     -47.5689     XY       4.5054     YY     -50.1319
        XZ      -0.3780     YZ      -0.8651     ZZ     -48.0801

 Total job time:  163.52s(wall), 162.28s(cpu)
        *  Thank you very much for using Q-Chem.  Have a nice day.  *
