 Q-Chem 5.4, Q-Chem, Inc., Pleasanton, CA (2021)
 Q-Chem 5.4.0 for Intel X86 EM64T Linux

User input:
--------------------------------------------------------------
$molecule
0 1
C	-0.523557	-0.333972	0.012108
C	0.138043	0.221128	1.111508
C	1.198143	1.110628	0.788808
H	-0.144457	-0.015972	2.148208
C	1.367243	1.252428	-0.600392
S	0.198343	0.271728	-1.474692
C	2.031443	1.809828	1.826708
H	1.705343	1.536228	2.848808
H	1.959043	2.914028	1.738308
H	3.106243	1.546728	1.738308
C	-0.523557	-1.774672	0.012108
H	0.411643	-1.774872	0.552208
H	-0.113957	-2.478472	-0.697292
H	-0.997157	-2.293572	0.832308
H	2.094343	1.862628	-1.149492
$end

$rem
JOBTYPE		SP
EXCHANGE	HF
CORRELATION	pRIMP2
BASIS		cc-pvtz
METHOD		rimp2
AUX_BASIS	rimp2-cc-pvtz
SOLVENT_METHOD	PCM
PURECART	11111
SYMMETRY	false
MEM_TOTAL	110000
SCF_CONVERGENCE = 6
THRESH=10
$end

$solvent
dielectric 4.90
$end
--------------------------------------------------------------

             Standard Nuclear Orientation (Angstroms)
    I     Atom           X                Y                Z
 ----------------------------------------------------------------
    1      C      -0.5235570000    -0.3339720000     0.0121080000
    2      C       0.1380430000     0.2211280000     1.1115080000
    3      C       1.1981430000     1.1106280000     0.7888080000
    4      H      -0.1444570000    -0.0159720000     2.1482080000
    5      C       1.3672430000     1.2524280000    -0.6003920000
    6      S       0.1983430000     0.2717280000    -1.4746920000
    7      C       2.0314430000     1.8098280000     1.8267080000
    8      H       1.7053430000     1.5362280000     2.8488080000
    9      H       1.9590430000     2.9140280000     1.7383080000
   10      H       3.1062430000     1.5467280000     1.7383080000
   11      C      -0.5235570000    -1.7746720000     0.0121080000
   12      H       0.4116430000    -1.7748720000     0.5522080000
   13      H      -0.1139570000    -2.4784720000    -0.6972920000
   14      H      -0.9971570000    -2.2935720000     0.8323080000
   15      H       2.0943430000     1.8626280000    -1.1494920000
 ----------------------------------------------------------------

   10    -629.3646863299      9.56e-07  Convergence criterion met
 Total energy in the final basis set =     -629.3646863299
        RIMP2         total energy =      -630.5547626510 a.u.

                    Orbital Energies (a.u.)
 --------------------------------------------------------------

 Alpha MOs
 -- Occupied --
-91.9791 -11.2678 -11.2643 -11.2498 -11.2366 -11.2285 -11.2116  -8.9792
 -6.6600  -6.6593  -6.6590  -1.1716  -1.0568  -0.9996  -0.9353  -0.8821
 -0.7466  -0.7273  -0.6444  -0.5893  -0.5794  -0.5728  -0.5540  -0.5452
 -0.5136  -0.4799  -0.4558  -0.4520  -0.3348  -0.2873

          Ground-State Mulliken Net Atomic Charges

     Atom                 Charge (a.u.)
  ----------------------------------------
      1 C                    -0.048120
      2 C                    -0.181460
      3 C                     0.001081
      4 H                     0.180156
      5 C                    -0.233679
      6 S                     0.020373
      7 C                    -0.267998
      8 H                     0.102036
      9 H                     0.107328
     10 H                     0.104547
     11 C                    -0.384097
     12 H                     0.136080
     13 H                     0.154059
     14 H                     0.113965
     15 H                     0.195729
  ----------------------------------------
  Sum of atomic charges =     0.000000

                    Cartesian Multipole Moments
 -----------------------------------------------------------------
    Charge (ESU x 10^10)
                -0.0000
    Dipole Moment (Debye)
         X       2.1094      Y      -0.1444      Z       1.7933
       Tot       2.7725
    Quadrupole Moments (Debye-Ang)
        XX     -50.1711     XY       3.5926     YY     -48.2721
        XZ      -0.3231     YZ      -0.4568     ZZ     -47.9039

 Total job time:  163.65s(wall), 161.67s(cpu)
        *  Thank you very much for using Q-Chem.  Have a nice day.  *
