 Q-Chem 5.4, Q-Chem, Inc., Pleasanton, CA (2021)
 Q-Chem 5.4.0 for Intel X86 EM64T Linux

User input:
--------------------------------------------------------------
$molecule
0 1
C	-0.120490	-0.566007	0.010945
C	0.029510	0.284493	1.110345
C	0.269810	1.647393	0.787645
H	-0.034590	-0.078707	2.147045
C	0.308210	1.864693	-0.601555
S	0.043210	0.362093	-1.475855
C	0.458710	2.718593	1.825545
H	0.384810	2.299393	2.847645
H	-0.306490	3.517893	1.737145
H	1.451210	3.207893	1.737145
C	-0.120490	-2.006707	0.010945
H	0.573610	-2.006907	0.838345
H	0.507110	-2.710507	-0.515555
H	-0.845990	-2.525607	0.619745
H	0.473010	2.799393	-1.150655
$end

$rem
JOBTYPE		SP
EXCHANGE	HF
CORRELATION	pRIMP2
BASIS		cc-pvtz
METHOD		rimp2
AUX_BASIS	rimp2-cc-pvtz
SOLVENT_METHOD	PCM
PURECART	11111
SYMMETRY	false
MEM_TOTAL	110000
SCF_CONVERGENCE = 6
THRESH=10
$end

$solvent
dielectric 4.90
$end
--------------------------------------------------------------

             Standard Nuclear Orientation (Angstroms)
    I     Atom           X                Y                Z
 ----------------------------------------------------------------
    1      C      -0.1204900000    -0.5660070000     0.0109450000
    2      C       0.0295100000     0.2844930000     1.1103450000
    3      C       0.2698100000     1.6473930000     0.7876450000
    4      H      -0.0345900000    -0.0787070000     2.1470450000
    5      C       0.3082100000     1.8646930000    -0.6015550000
    6      S       0.0432100000     0.3620930000    -1.4758550000
    7      C       0.4587100000     2.7185930000     1.8255450000
    8      H       0.3848100000     2.2993930000     2.8476450000
    9      H      -0.3064900000     3.5178930000     1.7371450000
   10      H       1.4512100000     3.2078930000     1.7371450000
   11      C      -0.1204900000    -2.0067070000     0.0109450000
   12      H       0.5736100000    -2.0069070000     0.8383450000
   13      H       0.5071100000    -2.7105070000    -0.5155550000
   14      H      -0.8459900000    -2.5256070000     0.6197450000
   15      H       0.4730100000     2.7993930000    -1.1506550000
 ----------------------------------------------------------------

   10    -629.4210328283      5.66e-07  Convergence criterion met
 Total energy in the final basis set =     -629.4210328283
        RIMP2         total energy =      -630.5988948639 a.u.

                    Orbital Energies (a.u.)
 --------------------------------------------------------------

 Alpha MOs
 -- Occupied --
-91.9770 -11.2814 -11.2526 -11.2473 -11.2288 -11.2271 -11.2179  -8.9768
 -6.6578  -6.6572  -6.6567  -1.1609  -1.0548  -0.9991  -0.9394  -0.8838
 -0.7422  -0.7218  -0.6482  -0.5913  -0.5751  -0.5700  -0.5578  -0.5430
 -0.5098  -0.4847  -0.4675  -0.4470  -0.3368  -0.2958

          Ground-State Mulliken Net Atomic Charges

     Atom                 Charge (a.u.)
  ----------------------------------------
      1 C                     0.061705
      2 C                    -0.273925
      3 C                     0.034316
      4 H                     0.176161
      5 C                    -0.265315
      6 S                    -0.004032
      7 C                    -0.273737
      8 H                     0.101095
      9 H                     0.107299
     10 H                     0.107078
     11 C                    -0.389509
     12 H                     0.136672
     13 H                     0.156942
     14 H                     0.133075
     15 H                     0.192175
  ----------------------------------------
  Sum of atomic charges =     0.000000

                    Cartesian Multipole Moments
 -----------------------------------------------------------------
    Charge (ESU x 10^10)
                -0.0000
    Dipole Moment (Debye)
         X       0.6597      Y      -0.4004      Z       1.9839
       Tot       2.1287
    Quadrupole Moments (Debye-Ang)
        XX     -53.8315     XY       0.3952     YY     -42.4044
        XZ      -0.2802     YZ      -0.6941     ZZ     -48.7460

 Total job time:  157.41s(wall), 155.38s(cpu)
        *  Thank you very much for using Q-Chem.  Have a nice day.  *
