 Q-Chem 5.4, Q-Chem, Inc., Pleasanton, CA (2021)
 Q-Chem 5.4.0 for Intel X86 EM64T Linux

User input:
--------------------------------------------------------------
$molecule
0 1
C	-0.180452	-0.553191	0.014755
C	0.043048	0.281009	1.114155
C	0.401248	1.617709	0.791455
H	-0.052352	-0.075291	2.150855
C	0.458448	1.830809	-0.597745
S	0.063448	0.357109	-1.472045
C	0.682848	2.668409	1.829355
H	0.572648	2.257309	2.851455
H	-0.009752	3.531409	1.740955
H	1.714148	3.069409	1.740955
C	-0.180452	-1.993891	0.014755
H	0.883148	-1.993591	0.202455
H	-0.322752	-2.697691	0.821455
H	-0.015952	-2.512791	-0.917945
H	0.704148	2.747709	-1.146845
$end

$rem
JOBTYPE		SP
EXCHANGE	HF
CORRELATION	pRIMP2
BASIS		cc-pvtz
METHOD		rimp2
AUX_BASIS	rimp2-cc-pvtz
SOLVENT_METHOD	PCM
PURECART	11111
SYMMETRY	false
MEM_TOTAL	110000
SCF_CONVERGENCE = 6
THRESH=10
$end

$solvent
dielectric 4.90
$end
--------------------------------------------------------------

             Standard Nuclear Orientation (Angstroms)
    I     Atom           X                Y                Z
 ----------------------------------------------------------------
    1      C      -0.1804520000    -0.5531910000     0.0147550000
    2      C       0.0430480000     0.2810090000     1.1141550000
    3      C       0.4012480000     1.6177090000     0.7914550000
    4      H      -0.0523520000    -0.0752910000     2.1508550000
    5      C       0.4584480000     1.8308090000    -0.5977450000
    6      S       0.0634480000     0.3571090000    -1.4720450000
    7      C       0.6828480000     2.6684090000     1.8293550000
    8      H       0.5726480000     2.2573090000     2.8514550000
    9      H      -0.0097520000     3.5314090000     1.7409550000
   10      H       1.7141480000     3.0694090000     1.7409550000
   11      C      -0.1804520000    -1.9938910000     0.0147550000
   12      H       0.8831480000    -1.9935910000     0.2024550000
   13      H      -0.3227520000    -2.6976910000     0.8214550000
   14      H      -0.0159520000    -2.5127910000    -0.9179450000
   15      H       0.7041480000     2.7477090000    -1.1468450000
 ----------------------------------------------------------------

   10    -629.4211882102      6.99e-07  Convergence criterion met
 Total energy in the final basis set =     -629.4211882102
        RIMP2         total energy =      -630.5971853634 a.u.

                    Orbital Energies (a.u.)
 --------------------------------------------------------------

 Alpha MOs
 -- Occupied --
-91.9794 -11.2854 -11.2490 -11.2472 -11.2265 -11.2223 -11.2220  -8.9791
 -6.6601  -6.6595  -6.6589  -1.1613  -1.0565  -0.9973  -0.9413  -0.8824
 -0.7437  -0.7192  -0.6495  -0.5870  -0.5755  -0.5671  -0.5552  -0.5459
 -0.5066  -0.4932  -0.4666  -0.4575  -0.3383  -0.2881

          Ground-State Mulliken Net Atomic Charges

     Atom                 Charge (a.u.)
  ----------------------------------------
      1 C                     0.059607
      2 C                    -0.309070
      3 C                     0.054424
      4 H                     0.173855
      5 C                    -0.283862
      6 S                     0.005124
      7 C                    -0.272952
      8 H                     0.101410
      9 H                     0.107363
     10 H                     0.107031
     11 C                    -0.382562
     12 H                     0.150272
     13 H                     0.160959
     14 H                     0.135558
     15 H                     0.192842
  ----------------------------------------
  Sum of atomic charges =     0.000000

                    Cartesian Multipole Moments
 -----------------------------------------------------------------
    Charge (ESU x 10^10)
                -0.0000
    Dipole Moment (Debye)
         X       1.0080      Y      -0.7456      Z       1.5067
       Tot       1.9601
    Quadrupole Moments (Debye-Ang)
        XX     -54.0837     XY       0.7565     YY     -42.4282
        XZ       0.0373     YZ      -0.1049     ZZ     -48.5529

 Total job time:  156.20s(wall), 155.54s(cpu)
        *  Thank you very much for using Q-Chem.  Have a nice day.  *
