 Q-Chem 5.4, Q-Chem, Inc., Pleasanton, CA (2021)
 Q-Chem 5.4.0 for Intel X86 EM64T Linux

User input:
--------------------------------------------------------------
$molecule
0 1
C	-0.228664	-0.535397	0.011474
C	0.066736	0.276103	1.110874
C	0.540036	1.576503	0.788174
H	-0.059364	-0.070397	2.147574
C	0.615536	1.783903	-0.601026
S	0.093636	0.350203	-1.475326
C	0.912136	2.598703	1.826074
H	0.766536	2.198703	2.848174
H	0.297336	3.518703	1.737674
H	1.974536	2.908303	1.737674
C	-0.228664	-1.976097	0.011474
H	-1.056064	-1.975797	0.705574
H	-0.755164	-2.679897	-0.616126
H	0.380136	-2.494997	0.736974
H	0.940236	2.675903	-1.150126
$end

$rem
JOBTYPE		SP
EXCHANGE	HF
CORRELATION	pRIMP2
BASIS		cc-pvtz
METHOD		rimp2
AUX_BASIS	rimp2-cc-pvtz
SOLVENT_METHOD	PCM
PURECART	11111
SYMMETRY	false
MEM_TOTAL	110000
SCF_CONVERGENCE = 6
THRESH=10
$end

$solvent
dielectric 4.90
$end
--------------------------------------------------------------

   10    -629.4152361358      5.64e-07  Convergence criterion met
 Total energy in the final basis set =     -629.4152361358
        RIMP2         total energy =      -630.5945827099 a.u.
 Total job time:  159.24s(wall), 157.59s(cpu)
        *  Thank you very much for using Q-Chem.  Have a nice day.  *
 Q-Chem 5.4, Q-Chem, Inc., Pleasanton, CA (2021)
 Q-Chem 5.4.0 for Intel X86 EM64T Linux

User input:
--------------------------------------------------------------
$molecule
0 1
C	-0.228664	-0.535397	0.011474
C	0.066736	0.276103	1.110874
C	0.540036	1.576503	0.788174
H	-0.059364	-0.070397	2.147574
C	0.615536	1.783903	-0.601026
S	0.093636	0.350203	-1.475326
C	0.912136	2.598703	1.826074
H	0.766536	2.198703	2.848174
H	0.297336	3.518703	1.737674
H	1.974536	2.908303	1.737674
C	-0.228664	-1.976097	0.011474
H	-1.056064	-1.975797	0.705574
H	-0.755164	-2.679897	-0.616126
H	0.380136	-2.494997	0.736974
H	0.940236	2.675903	-1.150126
$end

$rem
JOBTYPE		SP
EXCHANGE	HF
CORRELATION	pRIMP2
BASIS		cc-pvtz
METHOD		rimp2
AUX_BASIS	rimp2-cc-pvtz
SOLVENT_METHOD	PCM
PURECART	11111
SYMMETRY	false
MEM_TOTAL	110000
SCF_CONVERGENCE = 6
THRESH=10
$end

$solvent
dielectric 4.90
$end
--------------------------------------------------------------

             Standard Nuclear Orientation (Angstroms)
    I     Atom           X                Y                Z
 ----------------------------------------------------------------
    1      C      -0.2286640000    -0.5353970000     0.0114740000
    2      C       0.0667360000     0.2761030000     1.1108740000
    3      C       0.5400360000     1.5765030000     0.7881740000
    4      H      -0.0593640000    -0.0703970000     2.1475740000
    5      C       0.6155360000     1.7839030000    -0.6010260000
    6      S       0.0936360000     0.3502030000    -1.4753260000
    7      C       0.9121360000     2.5987030000     1.8260740000
    8      H       0.7665360000     2.1987030000     2.8481740000
    9      H       0.2973360000     3.5187030000     1.7376740000
   10      H       1.9745360000     2.9083030000     1.7376740000
   11      C      -0.2286640000    -1.9760970000     0.0114740000
   12      H      -1.0560640000    -1.9757970000     0.7055740000
   13      H      -0.7551640000    -2.6798970000    -0.6161260000
   14      H       0.3801360000    -2.4949970000     0.7369740000
   15      H       0.9402360000     2.6759030000    -1.1501260000
 ----------------------------------------------------------------

   10    -629.4152361358      5.64e-07  Convergence criterion met
 Total energy in the final basis set =     -629.4152361358
        RIMP2         total energy =      -630.5945827099 a.u.

                    Orbital Energies (a.u.)
 --------------------------------------------------------------

 Alpha MOs
 -- Occupied --
-91.9752 -11.2789 -11.2542 -11.2475 -11.2306 -11.2271 -11.2174  -8.9753
 -6.6563  -6.6556  -6.6551  -1.1610  -1.0546  -0.9985  -0.9399  -0.8838
 -0.7427  -0.7216  -0.6470  -0.5902  -0.5760  -0.5670  -0.5582  -0.5433
 -0.5106  -0.4909  -0.4630  -0.4443  -0.3374  -0.2936

          Ground-State Mulliken Net Atomic Charges

     Atom                 Charge (a.u.)
  ----------------------------------------
      1 C                     0.052932
      2 C                    -0.297045
      3 C                     0.047544
      4 H                     0.176847
      5 C                    -0.261730
      6 S                    -0.001336
      7 C                    -0.273175
      8 H                     0.101169
      9 H                     0.107123
     10 H                     0.107213
     11 C                    -0.381702
     12 H                     0.132494
     13 H                     0.158300
     14 H                     0.139878
     15 H                     0.191489
  ----------------------------------------
  Sum of atomic charges =     0.000000

                    Cartesian Multipole Moments
 -----------------------------------------------------------------
    Charge (ESU x 10^10)
                -0.0000
    Dipole Moment (Debye)
         X      -0.0703      Y      -0.3876      Z       1.9405
       Tot       1.9801
    Quadrupole Moments (Debye-Ang)
        XX     -52.8804     XY       4.1251     YY     -43.1790
        XZ       0.3360     YZ      -0.5017     ZZ     -48.6712

 Total job time:  158.11s(wall), 156.55s(cpu)
        *  Thank you very much for using Q-Chem.  Have a nice day.  *
