 Q-Chem 5.4, Q-Chem, Inc., Pleasanton, CA (2021)
 Q-Chem 5.4.0 for Intel X86 EM64T Linux

User input:
--------------------------------------------------------------
$molecule
0 1
C	-0.524521	-0.333974	0.014755
C	0.137079	0.221126	1.114155
C	1.197179	1.110626	0.791455
H	-0.145421	-0.015974	2.150855
C	1.366279	1.252426	-0.597745
S	0.197379	0.271726	-1.472045
C	2.030479	1.809826	1.829355
H	1.704379	1.536226	2.851455
H	1.958079	2.914026	1.740955
H	3.105279	1.546726	1.740955
C	-0.524521	-1.774674	0.014755
H	0.539079	-1.774374	0.202455
H	-0.666821	-2.478474	0.821455
H	-0.360021	-2.293574	-0.917945
H	2.093379	1.862626	-1.146845
$end

$rem
JOBTYPE		SP
EXCHANGE	HF
CORRELATION	pRIMP2
BASIS		cc-pvtz
METHOD		rimp2
AUX_BASIS	rimp2-cc-pvtz
SOLVENT_METHOD	PCM
PURECART	11111
SYMMETRY	false
MEM_TOTAL	110000
SCF_CONVERGENCE = 6
THRESH=10
$end

$solvent
dielectric 4.90
$end
--------------------------------------------------------------

             Standard Nuclear Orientation (Angstroms)
    I     Atom           X                Y                Z
 ----------------------------------------------------------------
    1      C      -0.5245210000    -0.3339740000     0.0147550000
    2      C       0.1370790000     0.2211260000     1.1141550000
    3      C       1.1971790000     1.1106260000     0.7914550000
    4      H      -0.1454210000    -0.0159740000     2.1508550000
    5      C       1.3662790000     1.2524260000    -0.5977450000
    6      S       0.1973790000     0.2717260000    -1.4720450000
    7      C       2.0304790000     1.8098260000     1.8293550000
    8      H       1.7043790000     1.5362260000     2.8514550000
    9      H       1.9580790000     2.9140260000     1.7409550000
   10      H       3.1052790000     1.5467260000     1.7409550000
   11      C      -0.5245210000    -1.7746740000     0.0147550000
   12      H       0.5390790000    -1.7743740000     0.2024550000
   13      H      -0.6668210000    -2.4784740000     0.8214550000
   14      H      -0.3600210000    -2.2935740000    -0.9179450000
   15      H       2.0933790000     1.8626260000    -1.1468450000
 ----------------------------------------------------------------

   10    -629.3713929436      7.12e-07  Convergence criterion met
 Total energy in the final basis set =     -629.3713929436
        RIMP2         total energy =      -630.5594120628 a.u.

                    Orbital Energies (a.u.)
 --------------------------------------------------------------

 Alpha MOs
 -- Occupied --
-91.9781 -11.2676 -11.2675 -11.2499 -11.2345 -11.2283 -11.2158  -8.9784
 -6.6593  -6.6586  -6.6582  -1.1722  -1.0579  -0.9978  -0.9380  -0.8811
 -0.7485  -0.7259  -0.6468  -0.5896  -0.5796  -0.5668  -0.5544  -0.5459
 -0.5090  -0.4903  -0.4605  -0.4495  -0.3373  -0.2869

          Ground-State Mulliken Net Atomic Charges

     Atom                 Charge (a.u.)
  ----------------------------------------
      1 C                    -0.035920
      2 C                    -0.202327
      3 C                     0.013330
      4 H                     0.177078
      5 C                    -0.238177
      6 S                     0.016781
      7 C                    -0.268444
      8 H                     0.102266
      9 H                     0.107509
     10 H                     0.104752
     11 C                    -0.369914
     12 H                     0.130248
     13 H                     0.139885
     14 H                     0.126919
     15 H                     0.196014
  ----------------------------------------
  Sum of atomic charges =     0.000000

                    Cartesian Multipole Moments
 -----------------------------------------------------------------
    Charge (ESU x 10^10)
                -0.0000
    Dipole Moment (Debye)
         X       2.0998      Y      -0.2559      Z       1.6133
       Tot       2.6603
    Quadrupole Moments (Debye-Ang)
        XX     -50.3390     XY       3.7927     YY     -47.9899
        XZ      -0.0977     YZ      -0.3899     ZZ     -47.9477

 Total job time:  163.15s(wall), 161.60s(cpu)
        *  Thank you very much for using Q-Chem.  Have a nice day.  *
