 Q-Chem 5.4, Q-Chem, Inc., Pleasanton, CA (2021)
 Q-Chem 5.4.0 for Intel X86 EM64T Linux

User input:
--------------------------------------------------------------
$molecule
0 1
C	-0.592348	-0.237127	0.015308
C	0.155552	0.194673	1.114708
C	1.354052	0.886573	0.792008
H	-0.163848	0.010273	2.151408
C	1.545152	0.996873	-0.597192
S	0.223852	0.234073	-1.471492
C	2.296152	1.430473	1.829908
H	1.927452	1.217573	2.852008
H	2.416552	2.530373	1.741508
H	3.308952	0.984673	1.741508
C	-0.592348	-1.677827	0.015308
H	0.471252	-1.678027	-0.172092
H	-0.734548	-2.381627	-0.791492
H	-0.427848	-2.196727	0.948008
H	2.367252	1.471473	-1.146292
$end

$rem
JOBTYPE		SP
EXCHANGE	HF
CORRELATION	pRIMP2
BASIS		cc-pvtz
METHOD		rimp2
AUX_BASIS	rimp2-cc-pvtz
SOLVENT_METHOD	PCM
PURECART	11111
SYMMETRY	false
MEM_TOTAL	110000
SCF_CONVERGENCE = 6
THRESH=10
$end

$solvent
dielectric 4.90
$end
--------------------------------------------------------------

             Standard Nuclear Orientation (Angstroms)
    I     Atom           X                Y                Z
 ----------------------------------------------------------------
    1      C      -0.5923480000    -0.2371270000     0.0153080000
    2      C       0.1555520000     0.1946730000     1.1147080000
    3      C       1.3540520000     0.8865730000     0.7920080000
    4      H      -0.1638480000     0.0102730000     2.1514080000
    5      C       1.5451520000     0.9968730000    -0.5971920000
    6      S       0.2238520000     0.2340730000    -1.4714920000
    7      C       2.2961520000     1.4304730000     1.8299080000
    8      H       1.9274520000     1.2175730000     2.8520080000
    9      H       2.4165520000     2.5303730000     1.7415080000
   10      H       3.3089520000     0.9846730000     1.7415080000
   11      C      -0.5923480000    -1.6778270000     0.0153080000
   12      H       0.4712520000    -1.6780270000    -0.1720920000
   13      H      -0.7345480000    -2.3816270000    -0.7914920000
   14      H      -0.4278480000    -2.1967270000     0.9480080000
   15      H       2.3672520000     1.4714730000    -1.1462920000
 ----------------------------------------------------------------

   10    -629.3501155387      9.64e-07  Convergence criterion met
 Total energy in the final basis set =     -629.3501155387
        RIMP2         total energy =      -630.5416164429 a.u.

                    Orbital Energies (a.u.)
 --------------------------------------------------------------

 Alpha MOs
 -- Occupied --
-91.9731 -11.2795 -11.2580 -11.2518 -11.2457 -11.2296 -11.2148  -8.9744
 -6.6553  -6.6545  -6.6541  -1.1792  -1.0602  -0.9987  -0.9380  -0.8804
 -0.7531  -0.7304  -0.6448  -0.5907  -0.5872  -0.5677  -0.5532  -0.5460
 -0.5098  -0.4956  -0.4616  -0.4320  -0.3397  -0.2896

          Ground-State Mulliken Net Atomic Charges

     Atom                 Charge (a.u.)
  ----------------------------------------
      1 C                    -0.067956
      2 C                    -0.163437
      3 C                    -0.006572
      4 H                     0.183682
      5 C                    -0.202741
      6 S                     0.007747
      7 C                    -0.267773
      8 H                     0.102797
      9 H                     0.107710
     10 H                     0.105186
     11 C                    -0.357416
     12 H                     0.107451
     13 H                     0.135308
     14 H                     0.118744
     15 H                     0.197270
  ----------------------------------------
  Sum of atomic charges =     0.000000

                    Cartesian Multipole Moments
 -----------------------------------------------------------------
    Charge (ESU x 10^10)
                -0.0000
    Dipole Moment (Debye)
         X       2.7129      Y      -0.1542      Z       1.6332
       Tot       3.1704
    Quadrupole Moments (Debye-Ang)
        XX     -48.8523     XY       3.8352     YY     -49.8182
        XZ      -0.0349     YZ       0.3084     ZZ     -47.7859

 Total job time:  166.80s(wall), 165.01s(cpu)
        *  Thank you very much for using Q-Chem.  Have a nice day.  *
