 Q-Chem 5.4, Q-Chem, Inc., Pleasanton, CA (2021)
 Q-Chem 5.4.0 for Intel X86 EM64T Linux

User input:
--------------------------------------------------------------
$molecule
0 1
C	-0.117536	-0.566007	0.019910
C	0.032464	0.284493	1.119310
C	0.272764	1.647393	0.796610
H	-0.031636	-0.078707	2.156010
C	0.311164	1.864693	-0.592590
S	0.046164	0.362093	-1.466890
C	0.461664	2.718593	1.834510
H	0.387764	2.299393	2.856610
H	-0.303536	3.517893	1.746110
H	1.454164	3.207893	1.746110
C	-0.117536	-2.006707	0.019910
H	-0.304936	-2.006907	-1.043690
H	-0.924336	-2.710507	0.162110
H	0.815164	-2.525607	-0.144590
H	0.475964	2.799393	-1.141690
$end

$rem
JOBTYPE		SP
EXCHANGE	HF
CORRELATION	pRIMP2
BASIS		cc-pvtz
METHOD		rimp2
AUX_BASIS	rimp2-cc-pvtz
SOLVENT_METHOD	PCM
PURECART	11111
SYMMETRY	false
MEM_TOTAL	110000
SCF_CONVERGENCE = 6
THRESH=10
$end

$solvent
dielectric 4.90
$end
--------------------------------------------------------------

   10    -629.4189977555      5.40e-07  Convergence criterion met
 Total energy in the final basis set =     -629.4189977555
        RIMP2         total energy =      -630.5971323318 a.u.
 Total job time:  156.71s(wall), 155.23s(cpu)
        *  Thank you very much for using Q-Chem.  Have a nice day.  *
 Q-Chem 5.4, Q-Chem, Inc., Pleasanton, CA (2021)
 Q-Chem 5.4.0 for Intel X86 EM64T Linux

User input:
--------------------------------------------------------------
$molecule
0 1
C	-0.117536	-0.566007	0.019910
C	0.032464	0.284493	1.119310
C	0.272764	1.647393	0.796610
H	-0.031636	-0.078707	2.156010
C	0.311164	1.864693	-0.592590
S	0.046164	0.362093	-1.466890
C	0.461664	2.718593	1.834510
H	0.387764	2.299393	2.856610
H	-0.303536	3.517893	1.746110
H	1.454164	3.207893	1.746110
C	-0.117536	-2.006707	0.019910
H	-0.304936	-2.006907	-1.043690
H	-0.924336	-2.710507	0.162110
H	0.815164	-2.525607	-0.144590
H	0.475964	2.799393	-1.141690
$end

$rem
JOBTYPE		SP
EXCHANGE	HF
CORRELATION	pRIMP2
BASIS		cc-pvtz
METHOD		rimp2
AUX_BASIS	rimp2-cc-pvtz
SOLVENT_METHOD	PCM
PURECART	11111
SYMMETRY	false
MEM_TOTAL	110000
SCF_CONVERGENCE = 6
THRESH=10
$end

$solvent
dielectric 4.90
$end
--------------------------------------------------------------

             Standard Nuclear Orientation (Angstroms)
    I     Atom           X                Y                Z
 ----------------------------------------------------------------
    1      C      -0.1175360000    -0.5660070000     0.0199100000
    2      C       0.0324640000     0.2844930000     1.1193100000
    3      C       0.2727640000     1.6473930000     0.7966100000
    4      H      -0.0316360000    -0.0787070000     2.1560100000
    5      C       0.3111640000     1.8646930000    -0.5925900000
    6      S       0.0461640000     0.3620930000    -1.4668900000
    7      C       0.4616640000     2.7185930000     1.8345100000
    8      H       0.3877640000     2.2993930000     2.8566100000
    9      H      -0.3035360000     3.5178930000     1.7461100000
   10      H       1.4541640000     3.2078930000     1.7461100000
   11      C      -0.1175360000    -2.0067070000     0.0199100000
   12      H      -0.3049360000    -2.0069070000    -1.0436900000
   13      H      -0.9243360000    -2.7105070000     0.1621100000
   14      H       0.8151640000    -2.5256070000    -0.1445900000
   15      H       0.4759640000     2.7993930000    -1.1416900000
 ----------------------------------------------------------------

   10    -629.4189977555      5.40e-07  Convergence criterion met
 Total energy in the final basis set =     -629.4189977555
        RIMP2         total energy =      -630.5971323318 a.u.

                    Orbital Energies (a.u.)
 --------------------------------------------------------------

 Alpha MOs
 -- Occupied --
-91.9807 -11.2744 -11.2581 -11.2471 -11.2292 -11.2268 -11.2159  -8.9806
 -6.6615  -6.6609  -6.6603  -1.1611  -1.0551  -0.9953  -0.9463  -0.8816
 -0.7480  -0.7187  -0.6480  -0.5917  -0.5752  -0.5656  -0.5538  -0.5473
 -0.5090  -0.4854  -0.4650  -0.4443  -0.3383  -0.3036

          Ground-State Mulliken Net Atomic Charges

     Atom                 Charge (a.u.)
  ----------------------------------------
      1 C                     0.050853
      2 C                    -0.264537
      3 C                     0.040991
      4 H                     0.179797
      5 C                    -0.258989
      6 S                    -0.002495
      7 C                    -0.273104
      8 H                     0.101863
      9 H                     0.106808
     10 H                     0.106824
     11 C                    -0.368346
     12 H                     0.111953
     13 H                     0.149591
     14 H                     0.123490
     15 H                     0.195302
  ----------------------------------------
  Sum of atomic charges =     0.000000

                    Cartesian Multipole Moments
 -----------------------------------------------------------------
    Charge (ESU x 10^10)
                -0.0000
    Dipole Moment (Debye)
         X       0.1776      Y       0.0333      Z       0.8609
       Tot       0.8797
    Quadrupole Moments (Debye-Ang)
        XX     -53.4379     XY       1.8869     YY     -42.4586
        XZ      -0.0066     YZ       1.4235     ZZ     -48.8292

 Total job time:  155.59s(wall), 154.50s(cpu)
        *  Thank you very much for using Q-Chem.  Have a nice day.  *
