 Q-Chem 5.4, Q-Chem, Inc., Pleasanton, CA (2021)
 Q-Chem 5.4.0 for Intel X86 EM64T Linux

User input:
--------------------------------------------------------------
$molecule
0 1
C	-0.012958	-0.577020	0.014458
C	-0.012958	0.286580	1.113858
C	-0.012858	1.670480	0.791158
H	-0.012958	-0.082220	2.150558
C	-0.012858	1.891180	-0.598042
S	-0.012958	0.365380	-1.472342
C	-0.012858	2.758280	1.829058
H	-0.012858	2.332580	2.851158
H	-0.905258	3.412580	1.740658
H	0.879542	3.412480	1.740658
C	0.237242	-1.995820	0.014458
H	-0.826458	-2.183020	0.014358
H	0.359442	-2.688920	-0.804742
H	0.327342	-2.506920	0.961558
H	-0.012858	2.840380	-1.147142
$end

$rem
JOBTYPE		SP
EXCHANGE	HF
CORRELATION	pRIMP2
BASIS		cc-pvtz
METHOD		rimp2
AUX_BASIS	rimp2-cc-pvtz
SOLVENT_METHOD	PCM
PURECART	11111
SYMMETRY	false
MEM_TOTAL	110000
SCF_CONVERGENCE = 6
THRESH=10
$end

$solvent
dielectric 4.90
$end
--------------------------------------------------------------

             Standard Nuclear Orientation (Angstroms)
    I     Atom           X                Y                Z
 ----------------------------------------------------------------
    1      C      -0.0129580000    -0.5770200000     0.0144580000
    2      C      -0.0129580000     0.2865800000     1.1138580000
    3      C      -0.0128580000     1.6704800000     0.7911580000
    4      H      -0.0129580000    -0.0822200000     2.1505580000
    5      C      -0.0128580000     1.8911800000    -0.5980420000
    6      S      -0.0129580000     0.3653800000    -1.4723420000
    7      C      -0.0128580000     2.7582800000     1.8290580000
    8      H      -0.0128580000     2.3325800000     2.8511580000
    9      H      -0.9052580000     3.4125800000     1.7406580000
   10      H       0.8795420000     3.4124800000     1.7406580000
   11      C       0.2372420000    -1.9958200000     0.0144580000
   12      H      -0.8264580000    -2.1830200000     0.0143580000
   13      H       0.3594420000    -2.6889200000    -0.8047420000
   14      H       0.3273420000    -2.5069200000     0.9615580000
   15      H      -0.0128580000     2.8403800000    -1.1471420000
 ----------------------------------------------------------------

   10    -629.4210962311      6.81e-07  Convergence criterion met
 Total energy in the final basis set =     -629.4210962311
        RIMP2         total energy =      -630.5972537953 a.u.

                    Orbital Energies (a.u.)
 --------------------------------------------------------------

 Alpha MOs
 -- Occupied --
-91.9775 -11.2850 -11.2491 -11.2469 -11.2264 -11.2241 -11.2213  -8.9773
 -6.6583  -6.6578  -6.6572  -1.1601  -1.0560  -0.9974  -0.9420  -0.8829
 -0.7438  -0.7188  -0.6473  -0.5890  -0.5738  -0.5715  -0.5525  -0.5456
 -0.5087  -0.4938  -0.4626  -0.4562  -0.3382  -0.2879

          Ground-State Mulliken Net Atomic Charges

     Atom                 Charge (a.u.)
  ----------------------------------------
      1 C                     0.060427
      2 C                    -0.304438
      3 C                     0.048641
      4 H                     0.177082
      5 C                    -0.278837
      6 S                    -0.001237
      7 C                    -0.273676
      8 H                     0.101293
      9 H                     0.107250
     10 H                     0.107288
     11 C                    -0.381928
     12 H                     0.140584
     13 H                     0.163382
     14 H                     0.141668
     15 H                     0.192499
  ----------------------------------------
  Sum of atomic charges =     0.000000

                    Cartesian Multipole Moments
 -----------------------------------------------------------------
    Charge (ESU x 10^10)
                -0.0000
    Dipole Moment (Debye)
         X      -0.4210      Y      -0.8159      Z       1.4169
       Tot       1.6884
    Quadrupole Moments (Debye-Ang)
        XX     -54.7054     XY       0.8516     YY     -41.3110
        XZ      -0.0458     YZ       0.4927     ZZ     -48.5658

 Total job time:  159.24s(wall), 155.18s(cpu)
        *  Thank you very much for using Q-Chem.  Have a nice day.  *
