 Q-Chem 5.4, Q-Chem, Inc., Pleasanton, CA (2021)
 Q-Chem 5.4.0 for Intel X86 EM64T Linux

User input:
--------------------------------------------------------------
$molecule
0 1
C	-0.176148	-0.553191	0.010180
C	0.047352	0.281009	1.109580
C	0.405552	1.617709	0.786880
H	-0.048048	-0.075291	2.146280
C	0.462752	1.830809	-0.602320
S	0.067752	0.357109	-1.476620
C	0.687152	2.668409	1.824780
H	0.576952	2.257309	2.846880
H	-0.005448	3.531409	1.736380
H	1.718452	3.069409	1.736380
C	-0.176148	-1.993891	0.010180
H	-0.176248	-1.993591	1.090180
H	-0.995348	-2.697691	0.010080
H	0.770952	-2.512791	0.010180
H	0.708452	2.747709	-1.151420
$end

$rem
JOBTYPE		SP
EXCHANGE	HF
CORRELATION	pRIMP2
BASIS		cc-pvtz
METHOD		rimp2
AUX_BASIS	rimp2-cc-pvtz
SOLVENT_METHOD	PCM
PURECART	11111
SYMMETRY	false
MEM_TOTAL	110000
SCF_CONVERGENCE = 6
THRESH=10
$end

$solvent
dielectric 4.90
$end
--------------------------------------------------------------

             Standard Nuclear Orientation (Angstroms)
    I     Atom           X                Y                Z
 ----------------------------------------------------------------
    1      C      -0.1761480000    -0.5531910000     0.0101800000
    2      C       0.0473520000     0.2810090000     1.1095800000
    3      C       0.4055520000     1.6177090000     0.7868800000
    4      H      -0.0480480000    -0.0752910000     2.1462800000
    5      C       0.4627520000     1.8308090000    -0.6023200000
    6      S       0.0677520000     0.3571090000    -1.4766200000
    7      C       0.6871520000     2.6684090000     1.8247800000
    8      H       0.5769520000     2.2573090000     2.8468800000
    9      H      -0.0054480000     3.5314090000     1.7363800000
   10      H       1.7184520000     3.0694090000     1.7363800000
   11      C      -0.1761480000    -1.9938910000     0.0101800000
   12      H      -0.1762480000    -1.9935910000     1.0901800000
   13      H      -0.9953480000    -2.6976910000     0.0100800000
   14      H       0.7709520000    -2.5127910000     0.0101800000
   15      H       0.7084520000     2.7477090000    -1.1514200000
 ----------------------------------------------------------------

   10    -629.4211008648      4.89e-07  Convergence criterion met
 Total energy in the final basis set =     -629.4211008648
        RIMP2         total energy =      -630.5998580196 a.u.

                    Orbital Energies (a.u.)
 --------------------------------------------------------------

 Alpha MOs
 -- Occupied --
-91.9746 -11.2761 -11.2586 -11.2471 -11.2353 -11.2275 -11.2158  -8.9748
 -6.6557  -6.6551  -6.6546  -1.1617  -1.0540  -0.9997  -0.9392  -0.8844
 -0.7424  -0.7248  -0.6481  -0.5920  -0.5781  -0.5661  -0.5595  -0.5419
 -0.5108  -0.4839  -0.4679  -0.4365  -0.3378  -0.3044

          Ground-State Mulliken Net Atomic Charges

     Atom                 Charge (a.u.)
  ----------------------------------------
      1 C                     0.053420
      2 C                    -0.272502
      3 C                     0.036547
      4 H                     0.177076
      5 C                    -0.249535
      6 S                    -0.007432
      7 C                    -0.272367
      8 H                     0.101134
      9 H                     0.107073
     10 H                     0.107238
     11 C                    -0.368135
     12 H                     0.119187
     13 H                     0.146629
     14 H                     0.128450
     15 H                     0.193218
  ----------------------------------------
  Sum of atomic charges =     0.000000

                    Cartesian Multipole Moments
 -----------------------------------------------------------------
    Charge (ESU x 10^10)
                -0.0000
    Dipole Moment (Debye)
         X       0.4225      Y      -0.0351      Z       2.1607
       Tot       2.2019
    Quadrupole Moments (Debye-Ang)
        XX     -53.1429     XY       2.3117     YY     -42.8515
        XZ      -0.0590     YZ      -1.0954     ZZ     -48.9378

 Total job time:  156.10s(wall), 155.05s(cpu)
        *  Thank you very much for using Q-Chem.  Have a nice day.  *
