 Q-Chem 5.4, Q-Chem, Inc., Pleasanton, CA (2021)
 Q-Chem 5.4.0 for Intel X86 EM64T Linux

User input:
--------------------------------------------------------------
$molecule
0 1
C	-0.514764	-0.333972	0.014756
C	0.146836	0.221128	1.114156
C	1.206936	1.110628	0.791456
H	-0.135664	-0.015972	2.150856
C	1.376036	1.252428	-0.597744
S	0.207136	0.271728	-1.472044
C	2.040236	1.809828	1.829356
H	1.714136	1.536228	2.851456
H	1.967836	2.914028	1.740956
H	3.115036	1.546728	1.740956
C	-0.514764	-1.774672	0.014756
H	-1.578364	-1.774872	0.202156
H	-0.372564	-2.478472	0.821556
H	-0.679264	-2.293572	-0.917944
H	2.103136	1.862628	-1.146844
$end

$rem
JOBTYPE		SP
EXCHANGE	HF
CORRELATION	pRIMP2
BASIS		cc-pvtz
METHOD		rimp2
AUX_BASIS	rimp2-cc-pvtz
SOLVENT_METHOD	PCM
PURECART	11111
SYMMETRY	false
MEM_TOTAL	110000
SCF_CONVERGENCE = 6
THRESH=10
$end

$solvent
dielectric 4.90
$end
--------------------------------------------------------------

             Standard Nuclear Orientation (Angstroms)
    I     Atom           X                Y                Z
 ----------------------------------------------------------------
    1      C      -0.5147640000    -0.3339720000     0.0147560000
    2      C       0.1468360000     0.2211280000     1.1141560000
    3      C       1.2069360000     1.1106280000     0.7914560000
    4      H      -0.1356640000    -0.0159720000     2.1508560000
    5      C       1.3760360000     1.2524280000    -0.5977440000
    6      S       0.2071360000     0.2717280000    -1.4720440000
    7      C       2.0402360000     1.8098280000     1.8293560000
    8      H       1.7141360000     1.5362280000     2.8514560000
    9      H       1.9678360000     2.9140280000     1.7409560000
   10      H       3.1150360000     1.5467280000     1.7409560000
   11      C      -0.5147640000    -1.7746720000     0.0147560000
   12      H      -1.5783640000    -1.7748720000     0.2021560000
   13      H      -0.3725640000    -2.4784720000     0.8215560000
   14      H      -0.6792640000    -2.2935720000    -0.9179440000
   15      H       2.1031360000     1.8626280000    -1.1468440000
 ----------------------------------------------------------------

   11    -629.3611563972      4.14e-07  Convergence criterion met
 Total energy in the final basis set =     -629.3611563972
        RIMP2         total energy =      -630.5508284261 a.u.

                    Orbital Energies (a.u.)
 --------------------------------------------------------------

 Alpha MOs
 -- Occupied --
-91.9729 -11.2696 -11.2559 -11.2480 -11.2421 -11.2277 -11.2078  -8.9737
 -6.6546  -6.6537  -6.6534  -1.1667  -1.0539  -0.9964  -0.9402  -0.8821
 -0.7473  -0.7258  -0.6439  -0.5847  -0.5764  -0.5649  -0.5548  -0.5427
 -0.5159  -0.4925  -0.4587  -0.4305  -0.3359  -0.2847

          Ground-State Mulliken Net Atomic Charges

     Atom                 Charge (a.u.)
  ----------------------------------------
      1 C                    -0.048108
      2 C                    -0.198742
      3 C                     0.015557
      4 H                     0.179949
      5 C                    -0.218664
      6 S                     0.008058
      7 C                    -0.269495
      8 H                     0.101497
      9 H                     0.106898
     10 H                     0.105125
     11 C                    -0.389144
     12 H                     0.126890
     13 H                     0.153699
     14 H                     0.132514
     15 H                     0.193967
  ----------------------------------------
  Sum of atomic charges =     0.000000

                    Cartesian Multipole Moments
 -----------------------------------------------------------------
    Charge (ESU x 10^10)
                -0.0000
    Dipole Moment (Debye)
         X       1.0460      Y      -0.0457      Z       1.7514
       Tot       2.0405
    Quadrupole Moments (Debye-Ang)
        XX     -49.1334     XY       5.6991     YY     -48.2524
        XZ      -0.0348     YZ      -0.2081     ZZ     -47.8924

 Total job time:  170.02s(wall), 168.70s(cpu)
        *  Thank you very much for using Q-Chem.  Have a nice day.  *
