 Q-Chem 5.4, Q-Chem, Inc., Pleasanton, CA (2021)
 Q-Chem 5.4.0 for Intel X86 EM64T Linux

User input:
--------------------------------------------------------------
$molecule
0 1
C	-0.291547	-0.512746	0.015606
C	0.073453	0.269954	1.115006
C	0.658353	1.524154	0.792306
H	-0.082447	-0.064346	2.151706
C	0.751653	1.724154	-0.596894
S	0.106753	0.341354	-1.471194
C	1.118053	2.509954	1.830206
H	0.938153	2.124254	2.852306
H	0.585753	3.480154	1.741806
H	2.203353	2.725854	1.741806
C	-0.291547	-1.953446	0.015606
H	0.788453	-1.953146	0.015706
H	-0.291647	-2.657246	0.834806
H	-0.291547	-2.472346	-0.931494
H	1.152753	2.584454	-1.145994
$end

$rem
JOBTYPE		SP
EXCHANGE	HF
CORRELATION	pRIMP2
BASIS		cc-pvtz
METHOD		rimp2
AUX_BASIS	rimp2-cc-pvtz
SOLVENT_METHOD	PCM
PURECART	11111
SYMMETRY	false
MEM_TOTAL	110000
SCF_CONVERGENCE = 6
THRESH=10
$end

$solvent
dielectric 4.90
$end
--------------------------------------------------------------

             Standard Nuclear Orientation (Angstroms)
    I     Atom           X                Y                Z
 ----------------------------------------------------------------
    1      C      -0.2915470000    -0.5127460000     0.0156060000
    2      C       0.0734530000     0.2699540000     1.1150060000
    3      C       0.6583530000     1.5241540000     0.7923060000
    4      H      -0.0824470000    -0.0643460000     2.1517060000
    5      C       0.7516530000     1.7241540000    -0.5968940000
    6      S       0.1067530000     0.3413540000    -1.4711940000
    7      C       1.1180530000     2.5099540000     1.8302060000
    8      H       0.9381530000     2.1242540000     2.8523060000
    9      H       0.5857530000     3.4801540000     1.7418060000
   10      H       2.2033530000     2.7258540000     1.7418060000
   11      C      -0.2915470000    -1.9534460000     0.0156060000
   12      H       0.7884530000    -1.9531460000     0.0157060000
   13      H      -0.2916470000    -2.6572460000     0.8348060000
   14      H      -0.2915470000    -2.4723460000    -0.9314940000
   15      H       1.1527530000     2.5844540000    -1.1459940000
 ----------------------------------------------------------------

   10    -629.4141249383      6.91e-07  Convergence criterion met
 Total energy in the final basis set =     -629.4141249383
        RIMP2         total energy =      -630.5917085894 a.u.

                    Orbital Energies (a.u.)
 --------------------------------------------------------------

 Alpha MOs
 -- Occupied --
-91.9784 -11.2831 -11.2517 -11.2476 -11.2267 -11.2237 -11.2219  -8.9784
 -6.6594  -6.6588  -6.6582  -1.1631  -1.0568  -0.9966  -0.9413  -0.8818
 -0.7448  -0.7198  -0.6489  -0.5862  -0.5781  -0.5658  -0.5539  -0.5465
 -0.5066  -0.4943  -0.4642  -0.4576  -0.3389  -0.2876

          Ground-State Mulliken Net Atomic Charges

     Atom                 Charge (a.u.)
  ----------------------------------------
      1 C                     0.052797
      2 C                    -0.313987
      3 C                     0.060520
      4 H                     0.174400
      5 C                    -0.280387
      6 S                     0.003200
      7 C                    -0.271344
      8 H                     0.101650
      9 H                     0.107600
     10 H                     0.106651
     11 C                    -0.374651
     12 H                     0.149784
     13 H                     0.158301
     14 H                     0.132367
     15 H                     0.193100
  ----------------------------------------
  Sum of atomic charges =     0.000000

                    Cartesian Multipole Moments
 -----------------------------------------------------------------
    Charge (ESU x 10^10)
                -0.0000
    Dipole Moment (Debye)
         X       1.2288      Y      -0.6666      Z       1.4263
       Tot       1.9972
    Quadrupole Moments (Debye-Ang)
        XX     -53.3523     XY       2.0417     YY     -43.5166
        XZ       0.1790     YZ       0.0670     ZZ     -48.5230

 Total job time:  157.99s(wall), 155.95s(cpu)
        *  Thank you very much for using Q-Chem.  Have a nice day.  *
