 Q-Chem 5.4, Q-Chem, Inc., Pleasanton, CA (2021)
 Q-Chem 5.4.0 for Intel X86 EM64T Linux

User input:
--------------------------------------------------------------
$molecule
0 1
C	-0.520218	-0.333972	0.019884
C	0.141382	0.221128	1.119284
C	1.201482	1.110628	0.796584
H	-0.141118	-0.015972	2.155984
C	1.370582	1.252428	-0.592616
S	0.201682	0.271728	-1.466916
C	2.034782	1.809828	1.834484
H	1.708682	1.536228	2.856584
H	1.962382	2.914028	1.746084
H	3.109582	1.546728	1.746084
C	-0.520218	-1.774672	0.019884
H	-0.520118	-1.774872	-1.060116
H	-1.339418	-2.478472	0.019784
H	0.426882	-2.293572	0.019884
H	2.097682	1.862628	-1.141716
$end

$rem
JOBTYPE		SP
EXCHANGE	HF
CORRELATION	pRIMP2
BASIS		cc-pvtz
METHOD		rimp2
AUX_BASIS	rimp2-cc-pvtz
SOLVENT_METHOD	PCM
PURECART	11111
SYMMETRY	false
MEM_TOTAL	110000
SCF_CONVERGENCE = 6
THRESH=10
$end

$solvent
dielectric 4.90
$end
--------------------------------------------------------------

             Standard Nuclear Orientation (Angstroms)
    I     Atom           X                Y                Z
 ----------------------------------------------------------------
    1      C      -0.5202180000    -0.3339720000     0.0198840000
    2      C       0.1413820000     0.2211280000     1.1192840000
    3      C       1.2014820000     1.1106280000     0.7965840000
    4      H      -0.1411180000    -0.0159720000     2.1559840000
    5      C       1.3705820000     1.2524280000    -0.5926160000
    6      S       0.2016820000     0.2717280000    -1.4669160000
    7      C       2.0347820000     1.8098280000     1.8344840000
    8      H       1.7086820000     1.5362280000     2.8565840000
    9      H       1.9623820000     2.9140280000     1.7460840000
   10      H       3.1095820000     1.5467280000     1.7460840000
   11      C      -0.5202180000    -1.7746720000     0.0198840000
   12      H      -0.5201180000    -1.7748720000    -1.0601160000
   13      H      -1.3394180000    -2.4784720000     0.0197840000
   14      H       0.4268820000    -2.2935720000     0.0198840000
   15      H       2.0976820000     1.8626280000    -1.1417160000
 ----------------------------------------------------------------

   10    -629.3679584408      8.84e-07  Convergence criterion met
 Total energy in the final basis set =     -629.3679584408
        RIMP2         total energy =      -630.5559089254 a.u.

                    Orbital Energies (a.u.)
 --------------------------------------------------------------

 Alpha MOs
 -- Occupied --
-91.9760 -11.2754 -11.2527 -11.2476 -11.2445 -11.2281 -11.2088  -8.9769
 -6.6577  -6.6569  -6.6565  -1.1701  -1.0567  -0.9945  -0.9446  -0.8788
 -0.7534  -0.7248  -0.6442  -0.5921  -0.5788  -0.5664  -0.5513  -0.5477
 -0.5157  -0.4661  -0.4631  -0.4391  -0.3324  -0.3055

          Ground-State Mulliken Net Atomic Charges

     Atom                 Charge (a.u.)
  ----------------------------------------
      1 C                    -0.062273
      2 C                    -0.168234
      3 C                     0.010875
      4 H                     0.179964
      5 C                    -0.211309
      6 S                     0.004775
      7 C                    -0.269322
      8 H                     0.102071
      9 H                     0.106815
     10 H                     0.104476
     11 C                    -0.361435
     12 H                     0.115236
     13 H                     0.129344
     14 H                     0.121309
     15 H                     0.197709
  ----------------------------------------
  Sum of atomic charges =     0.000000

                    Cartesian Multipole Moments
 -----------------------------------------------------------------
    Charge (ESU x 10^10)
                -0.0000
    Dipole Moment (Debye)
         X       1.8930      Y       0.2836      Z       1.0604
       Tot       2.1882
    Quadrupole Moments (Debye-Ang)
        XX     -49.1345     XY       4.7289     YY     -48.3858
        XZ       0.0962     YZ       1.1108     ZZ     -48.1739

 Total job time:  160.40s(wall), 159.70s(cpu)
        *  Thank you very much for using Q-Chem.  Have a nice day.  *
