 Q-Chem 5.4, Q-Chem, Inc., Pleasanton, CA (2021)
 Q-Chem 5.4.0 for Intel X86 EM64T Linux

User input:
--------------------------------------------------------------
$molecule
0 1
C	-0.291573	-0.512746	0.014755
C	0.073427	0.269954	1.114155
C	0.658327	1.524154	0.791455
H	-0.082473	-0.064346	2.150855
C	0.751627	1.724154	-0.597745
S	0.106727	0.341354	-1.472045
C	1.118027	2.509954	1.829355
H	0.938127	2.124254	2.851455
H	0.585727	3.480154	1.740955
H	2.203327	2.725854	1.740955
C	-0.291573	-1.953446	0.014755
H	0.772027	-1.953146	0.202455
H	-0.433873	-2.657246	0.821455
H	-0.127073	-2.472346	-0.917945
H	1.152727	2.584454	-1.146845
$end

$rem
JOBTYPE		SP
EXCHANGE	HF
CORRELATION	pRIMP2
BASIS		cc-pvtz
METHOD		rimp2
AUX_BASIS	rimp2-cc-pvtz
SOLVENT_METHOD	PCM
PURECART	11111
SYMMETRY	false
MEM_TOTAL	110000
SCF_CONVERGENCE = 6
THRESH=10
$end

$solvent
dielectric 4.90
$end
--------------------------------------------------------------

             Standard Nuclear Orientation (Angstroms)
    I     Atom           X                Y                Z
 ----------------------------------------------------------------
    1      C      -0.2915730000    -0.5127460000     0.0147550000
    2      C       0.0734270000     0.2699540000     1.1141550000
    3      C       0.6583270000     1.5241540000     0.7914550000
    4      H      -0.0824730000    -0.0643460000     2.1508550000
    5      C       0.7516270000     1.7241540000    -0.5977450000
    6      S       0.1067270000     0.3413540000    -1.4720450000
    7      C       1.1180270000     2.5099540000     1.8293550000
    8      H       0.9381270000     2.1242540000     2.8514550000
    9      H       0.5857270000     3.4801540000     1.7409550000
   10      H       2.2033270000     2.7258540000     1.7409550000
   11      C      -0.2915730000    -1.9534460000     0.0147550000
   12      H       0.7720270000    -1.9531460000     0.2024550000
   13      H      -0.4338730000    -2.6572460000     0.8214550000
   14      H      -0.1270730000    -2.4723460000    -0.9179450000
   15      H       1.1527270000     2.5844540000    -1.1468450000
 ----------------------------------------------------------------

   10    -629.4132198185      6.65e-07  Convergence criterion met
 Total energy in the final basis set =     -629.4132198185
        RIMP2         total energy =      -630.5912302833 a.u.

                    Orbital Energies (a.u.)
 --------------------------------------------------------------

 Alpha MOs
 -- Occupied --
-91.9791 -11.2830 -11.2514 -11.2477 -11.2268 -11.2234 -11.2212  -8.9789
 -6.6599  -6.6594  -6.6587  -1.1630  -1.0565  -0.9970  -0.9405  -0.8821
 -0.7443  -0.7201  -0.6488  -0.5869  -0.5768  -0.5666  -0.5549  -0.5458
 -0.5068  -0.4923  -0.4646  -0.4579  -0.3382  -0.2876

          Ground-State Mulliken Net Atomic Charges

     Atom                 Charge (a.u.)
  ----------------------------------------
      1 C                     0.046528
      2 C                    -0.300069
      3 C                     0.054396
      4 H                     0.173721
      5 C                    -0.279933
      6 S                     0.005944
      7 C                    -0.271424
      8 H                     0.101616
      9 H                     0.107571
     10 H                     0.106482
     11 C                    -0.379724
     12 H                     0.151423
     13 H                     0.156430
     14 H                     0.133941
     15 H                     0.193098
  ----------------------------------------
  Sum of atomic charges =     0.000000

                    Cartesian Multipole Moments
 -----------------------------------------------------------------
    Charge (ESU x 10^10)
                -0.0000
    Dipole Moment (Debye)
         X       1.2154      Y      -0.6607      Z       1.5301
       Tot       2.0628
    Quadrupole Moments (Debye-Ang)
        XX     -53.3364     XY       2.0531     YY     -43.6032
        XZ       0.0706     YZ      -0.1744     ZZ     -48.4829

 Total job time:  158.01s(wall), 156.28s(cpu)
        *  Thank you very much for using Q-Chem.  Have a nice day.  *
