 Q-Chem 5.4, Q-Chem, Inc., Pleasanton, CA (2021)
 Q-Chem 5.4.0 for Intel X86 EM64T Linux

User input:
--------------------------------------------------------------
$molecule
0 1
C	-0.055587	-0.573729	0.018379
C	0.019713	0.286571	1.117779
C	0.140313	1.665271	0.795079
H	-0.012387	-0.080829	2.154479
C	0.159613	1.885071	-0.594121
S	0.026613	0.365071	-1.468421
C	0.235213	2.748871	1.832979
H	0.198113	2.324771	2.855079
H	-0.596787	3.478371	1.744579
H	1.181213	3.322871	1.744579
C	-0.055587	-2.014429	0.018379
H	-0.749687	-2.014129	-0.809021
H	0.572013	-2.718229	-0.508121
H	-0.781087	-2.533329	0.627179
H	0.242313	2.830671	-1.143221
$end

$rem
JOBTYPE		SP
EXCHANGE	HF
CORRELATION	pRIMP2
BASIS		cc-pvtz
METHOD		rimp2
AUX_BASIS	rimp2-cc-pvtz
SOLVENT_METHOD	PCM
PURECART	11111
SYMMETRY	false
MEM_TOTAL	110000
SCF_CONVERGENCE = 6
THRESH=10
$end

$solvent
dielectric 4.90
$end
--------------------------------------------------------------

             Standard Nuclear Orientation (Angstroms)
    I     Atom           X                Y                Z
 ----------------------------------------------------------------
    1      C      -0.0555870000    -0.5737290000     0.0183790000
    2      C       0.0197130000     0.2865710000     1.1177790000
    3      C       0.1403130000     1.6652710000     0.7950790000
    4      H      -0.0123870000    -0.0808290000     2.1544790000
    5      C       0.1596130000     1.8850710000    -0.5941210000
    6      S       0.0266130000     0.3650710000    -1.4684210000
    7      C       0.2352130000     2.7488710000     1.8329790000
    8      H       0.1981130000     2.3247710000     2.8550790000
    9      H      -0.5967870000     3.4783710000     1.7445790000
   10      H       1.1812130000     3.3228710000     1.7445790000
   11      C      -0.0555870000    -2.0144290000     0.0183790000
   12      H      -0.7496870000    -2.0141290000    -0.8090210000
   13      H       0.5720130000    -2.7182290000    -0.5081210000
   14      H      -0.7810870000    -2.5333290000     0.6271790000
   15      H       0.2423130000     2.8306710000    -1.1432210000
 ----------------------------------------------------------------

   10    -629.4218031595      5.86e-07  Convergence criterion met
 Total energy in the final basis set =     -629.4218031595
        RIMP2         total energy =      -630.5986774362 a.u.

                    Orbital Energies (a.u.)
 --------------------------------------------------------------

 Alpha MOs
 -- Occupied --
-91.9789 -11.2787 -11.2551 -11.2470 -11.2278 -11.2267 -11.2179  -8.9788
 -6.6598  -6.6593  -6.6586  -1.1606  -1.0553  -0.9960  -0.9452  -0.8821
 -0.7466  -0.7186  -0.6476  -0.5910  -0.5755  -0.5680  -0.5513  -0.5474
 -0.5089  -0.4876  -0.4648  -0.4503  -0.3388  -0.2972

          Ground-State Mulliken Net Atomic Charges

     Atom                 Charge (a.u.)
  ----------------------------------------
      1 C                     0.044973
      2 C                    -0.264671
      3 C                     0.034043
      4 H                     0.181143
      5 C                    -0.257982
      6 S                    -0.005662
      7 C                    -0.273664
      8 H                     0.101528
      9 H                     0.106996
     10 H                     0.107169
     11 C                    -0.368607
     12 H                     0.119276
     13 H                     0.144941
     14 H                     0.136298
     15 H                     0.194218
  ----------------------------------------
  Sum of atomic charges =     0.000000

                    Cartesian Multipole Moments
 -----------------------------------------------------------------
    Charge (ESU x 10^10)
                -0.0000
    Dipole Moment (Debye)
         X      -0.3216      Y      -0.2205      Z       0.9712
       Tot       1.0466
    Quadrupole Moments (Debye-Ang)
        XX     -53.8912     XY       1.6625     YY     -42.0510
        XZ      -0.2850     YZ       1.3632     ZZ     -48.7310

 Total job time:  158.02s(wall), 156.93s(cpu)
        *  Thank you very much for using Q-Chem.  Have a nice day.  *
