 Q-Chem 5.4, Q-Chem, Inc., Pleasanton, CA (2021)
 Q-Chem 5.4.0 for Intel X86 EM64T Linux

User input:
--------------------------------------------------------------
$molecule
0 1
C	-0.120490	-0.566010	0.019118
C	0.029510	0.284490	1.118518
C	0.269810	1.647390	0.795818
H	-0.034590	-0.078710	2.155218
C	0.308210	1.864690	-0.593382
S	0.043210	0.362090	-1.467682
C	0.458710	2.718590	1.833718
H	0.384810	2.299390	2.855818
H	-0.306490	3.517890	1.745318
H	1.451210	3.207890	1.745318
C	-0.120490	-2.006710	0.019118
H	0.573810	-2.006410	-0.808182
H	0.507010	-2.710510	0.545718
H	-0.846090	-2.525610	-0.589682
H	0.473010	2.799390	-1.142482
$end

$rem
JOBTYPE		SP
EXCHANGE	HF
CORRELATION	pRIMP2
BASIS		cc-pvtz
METHOD		rimp2
AUX_BASIS	rimp2-cc-pvtz
SOLVENT_METHOD	PCM
PURECART	11111
SYMMETRY	false
MEM_TOTAL	110000
SCF_CONVERGENCE = 6
THRESH=10
$end

$solvent
dielectric 4.90
$end
--------------------------------------------------------------

   10    -629.4202899718      6.37e-07  Convergence criterion met
 Total energy in the final basis set =     -629.4202899718
        RIMP2         total energy =      -630.5969906470 a.u.
 Total job time:  157.55s(wall), 155.65s(cpu)
        *  Thank you very much for using Q-Chem.  Have a nice day.  *
 Q-Chem 5.4, Q-Chem, Inc., Pleasanton, CA (2021)
 Q-Chem 5.4.0 for Intel X86 EM64T Linux

User input:
--------------------------------------------------------------
$molecule
0 1
C	-0.120490	-0.566010	0.019118
C	0.029510	0.284490	1.118518
C	0.269810	1.647390	0.795818
H	-0.034590	-0.078710	2.155218
C	0.308210	1.864690	-0.593382
S	0.043210	0.362090	-1.467682
C	0.458710	2.718590	1.833718
H	0.384810	2.299390	2.855818
H	-0.306490	3.517890	1.745318
H	1.451210	3.207890	1.745318
C	-0.120490	-2.006710	0.019118
H	0.573810	-2.006410	-0.808182
H	0.507010	-2.710510	0.545718
H	-0.846090	-2.525610	-0.589682
H	0.473010	2.799390	-1.142482
$end

$rem
JOBTYPE		SP
EXCHANGE	HF
CORRELATION	pRIMP2
BASIS		cc-pvtz
METHOD		rimp2
AUX_BASIS	rimp2-cc-pvtz
SOLVENT_METHOD	PCM
PURECART	11111
SYMMETRY	false
MEM_TOTAL	110000
SCF_CONVERGENCE = 6
THRESH=10
$end

$solvent
dielectric 4.90
$end
--------------------------------------------------------------

             Standard Nuclear Orientation (Angstroms)
    I     Atom           X                Y                Z
 ----------------------------------------------------------------
    1      C      -0.1204900000    -0.5660100000     0.0191180000
    2      C       0.0295100000     0.2844900000     1.1185180000
    3      C       0.2698100000     1.6473900000     0.7958180000
    4      H      -0.0345900000    -0.0787100000     2.1552180000
    5      C       0.3082100000     1.8646900000    -0.5933820000
    6      S       0.0432100000     0.3620900000    -1.4676820000
    7      C       0.4587100000     2.7185900000     1.8337180000
    8      H       0.3848100000     2.2993900000     2.8558180000
    9      H      -0.3064900000     3.5178900000     1.7453180000
   10      H       1.4512100000     3.2078900000     1.7453180000
   11      C      -0.1204900000    -2.0067100000     0.0191180000
   12      H       0.5738100000    -2.0064100000    -0.8081820000
   13      H       0.5070100000    -2.7105100000     0.5457180000
   14      H      -0.8460900000    -2.5256100000    -0.5896820000
   15      H       0.4730100000     2.7993900000    -1.1424820000
 ----------------------------------------------------------------

   10    -629.4202899718      6.37e-07  Convergence criterion met
 Total energy in the final basis set =     -629.4202899718
        RIMP2         total energy =      -630.5969906470 a.u.

                    Orbital Energies (a.u.)
 --------------------------------------------------------------

 Alpha MOs
 -- Occupied --
-91.9785 -11.2789 -11.2550 -11.2468 -11.2274 -11.2266 -11.2179  -8.9786
 -6.6595  -6.6590  -6.6584  -1.1611  -1.0558  -0.9954  -0.9453  -0.8815
 -0.7468  -0.7185  -0.6488  -0.5896  -0.5762  -0.5649  -0.5534  -0.5475
 -0.5087  -0.4887  -0.4648  -0.4502  -0.3393  -0.2964

          Ground-State Mulliken Net Atomic Charges

     Atom                 Charge (a.u.)
  ----------------------------------------
      1 C                     0.058426
      2 C                    -0.294584
      3 C                     0.050153
      4 H                     0.180338
      5 C                    -0.264141
      6 S                    -0.003599
      7 C                    -0.272837
      8 H                     0.101554
      9 H                     0.107317
     10 H                     0.107021
     11 C                    -0.374393
     12 H                     0.124624
     13 H                     0.155707
     14 H                     0.130039
     15 H                     0.194376
  ----------------------------------------
  Sum of atomic charges =     0.000000

                    Cartesian Multipole Moments
 -----------------------------------------------------------------
    Charge (ESU x 10^10)
                -0.0000
    Dipole Moment (Debye)
         X       0.6724      Y      -0.2610      Z       0.9465
       Tot       1.1900
    Quadrupole Moments (Debye-Ang)
        XX     -53.8400     XY       0.4682     YY     -42.2756
        XZ       0.3840     YZ       1.2283     ZZ     -48.7431

 Total job time:  155.89s(wall), 154.85s(cpu)
        *  Thank you very much for using Q-Chem.  Have a nice day.  *
