 Q-Chem 5.4, Q-Chem, Inc., Pleasanton, CA (2021)
 Q-Chem 5.4.0 for Intel X86 EM64T Linux

User input:
--------------------------------------------------------------
$molecule
0 1
C	-0.591959	-0.237129	0.013103
C	0.155941	0.194671	1.112503
C	1.354441	0.886571	0.789803
H	-0.163459	0.010271	2.149203
C	1.545541	0.996871	-0.599397
S	0.224241	0.234071	-1.473697
C	2.296541	1.430471	1.827703
H	1.927841	1.217571	2.849803
H	2.416941	2.530371	1.739303
H	3.309341	0.984671	1.739303
C	-0.591959	-1.677829	0.013103
H	0.343241	-1.677529	0.553203
H	-1.001559	-2.381629	0.722503
H	-0.118359	-2.196729	-0.807097
H	2.367641	1.471471	-1.148497
$end

$rem
JOBTYPE		SP
EXCHANGE	HF
CORRELATION	pRIMP2
BASIS		cc-pvtz
METHOD		rimp2
AUX_BASIS	rimp2-cc-pvtz
SOLVENT_METHOD	PCM
PURECART	11111
SYMMETRY	false
MEM_TOTAL	110000
SCF_CONVERGENCE = 6
THRESH=10
$end

$solvent
dielectric 4.90
$end
--------------------------------------------------------------

             Standard Nuclear Orientation (Angstroms)
    I     Atom           X                Y                Z
 ----------------------------------------------------------------
    1      C      -0.5919590000    -0.2371290000     0.0131030000
    2      C       0.1559410000     0.1946710000     1.1125030000
    3      C       1.3544410000     0.8865710000     0.7898030000
    4      H      -0.1634590000     0.0102710000     2.1492030000
    5      C       1.5455410000     0.9968710000    -0.5993970000
    6      S       0.2242410000     0.2340710000    -1.4736970000
    7      C       2.2965410000     1.4304710000     1.8277030000
    8      H       1.9278410000     1.2175710000     2.8498030000
    9      H       2.4169410000     2.5303710000     1.7393030000
   10      H       3.3093410000     0.9846710000     1.7393030000
   11      C      -0.5919590000    -1.6778290000     0.0131030000
   12      H       0.3432410000    -1.6775290000     0.5532030000
   13      H      -1.0015590000    -2.3816290000     0.7225030000
   14      H      -0.1183590000    -2.1967290000    -0.8070970000
   15      H       2.3676410000     1.4714710000    -1.1484970000
 ----------------------------------------------------------------

   11    -629.3363501881      7.66e-07  Convergence criterion met
 Total energy in the final basis set =     -629.3363501881
        RIMP2         total energy =      -630.5309810746 a.u.

                    Orbital Energies (a.u.)
 --------------------------------------------------------------

 Alpha MOs
 -- Occupied --
-91.9796 -11.2795 -11.2518 -11.2500 -11.2454 -11.2292 -11.2081  -8.9800
 -6.6608  -6.6600  -6.6597  -1.1785  -1.0585  -1.0012  -0.9346  -0.8809
 -0.7506  -0.7319  -0.6458  -0.5938  -0.5795  -0.5689  -0.5539  -0.5462
 -0.5126  -0.4821  -0.4580  -0.4450  -0.3316  -0.2869

          Ground-State Mulliken Net Atomic Charges

     Atom                 Charge (a.u.)
  ----------------------------------------
      1 C                    -0.111734
      2 C                    -0.110998
      3 C                    -0.030051
      4 H                     0.183980
      5 C                    -0.204044
      6 S                     0.033620
      7 C                    -0.267348
      8 H                     0.102468
      9 H                     0.107325
     10 H                     0.103291
     11 C                    -0.371013
     12 H                     0.114536
     13 H                     0.123750
     14 H                     0.127273
     15 H                     0.198946
  ----------------------------------------
  Sum of atomic charges =     0.000000

                    Cartesian Multipole Moments
 -----------------------------------------------------------------
    Charge (ESU x 10^10)
                -0.0000
    Dipole Moment (Debye)
         X       2.7647      Y      -0.0372      Z       1.7811
       Tot       3.2890
    Quadrupole Moments (Debye-Ang)
        XX     -48.9618     XY       3.6169     YY     -50.2434
        XZ      -0.6334     YZ      -0.6532     ZZ     -47.3506

 Total job time:  181.34s(wall), 179.84s(cpu)
        *  Thank you very much for using Q-Chem.  Have a nice day.  *
