 Q-Chem 5.4, Q-Chem, Inc., Pleasanton, CA (2021)
 Q-Chem 5.4.0 for Intel X86 EM64T Linux

User input:
--------------------------------------------------------------
$molecule
0 1
C	-0.060265	-0.573729	0.019787
C	0.015035	0.286571	1.119187
C	0.135635	1.665271	0.796487
H	-0.017065	-0.080829	2.155887
C	0.154935	1.885071	-0.592713
S	0.021935	0.365071	-1.467013
C	0.230535	2.748871	1.834387
H	0.193435	2.324771	2.856487
H	-0.601465	3.478371	1.745987
H	1.176535	3.322871	1.745987
C	-0.060265	-2.014429	0.019787
H	0.309235	-2.014129	-0.995013
H	0.709535	-2.718229	0.299987
H	-0.950265	-2.533329	-0.304113
H	0.237635	2.830671	-1.141813
$end

$rem
JOBTYPE		SP
EXCHANGE	HF
CORRELATION	pRIMP2
BASIS		cc-pvtz
METHOD		rimp2
AUX_BASIS	rimp2-cc-pvtz
SOLVENT_METHOD	PCM
PURECART	11111
SYMMETRY	false
MEM_TOTAL	110000
SCF_CONVERGENCE = 6
THRESH=10
$end

$solvent
dielectric 4.90
$end
--------------------------------------------------------------

             Standard Nuclear Orientation (Angstroms)
    I     Atom           X                Y                Z
 ----------------------------------------------------------------
    1      C      -0.0602650000    -0.5737290000     0.0197870000
    2      C       0.0150350000     0.2865710000     1.1191870000
    3      C       0.1356350000     1.6652710000     0.7964870000
    4      H      -0.0170650000    -0.0808290000     2.1558870000
    5      C       0.1549350000     1.8850710000    -0.5927130000
    6      S       0.0219350000     0.3650710000    -1.4670130000
    7      C       0.2305350000     2.7488710000     1.8343870000
    8      H       0.1934350000     2.3247710000     2.8564870000
    9      H      -0.6014650000     3.4783710000     1.7459870000
   10      H       1.1765350000     3.3228710000     1.7459870000
   11      C      -0.0602650000    -2.0144290000     0.0197870000
   12      H       0.3092350000    -2.0141290000    -0.9950130000
   13      H       0.7095350000    -2.7182290000     0.2999870000
   14      H      -0.9502650000    -2.5333290000    -0.3041130000
   15      H       0.2376350000     2.8306710000    -1.1418130000
 ----------------------------------------------------------------

   10    -629.4202999764      5.70e-07  Convergence criterion met
 Total energy in the final basis set =     -629.4202999764
        RIMP2         total energy =      -630.5978043321 a.u.

                    Orbital Energies (a.u.)
 --------------------------------------------------------------

 Alpha MOs
 -- Occupied --
-91.9801 -11.2760 -11.2571 -11.2469 -11.2287 -11.2268 -11.2163  -8.9800
 -6.6609  -6.6604  -6.6598  -1.1609  -1.0553  -0.9953  -0.9462  -0.8816
 -0.7476  -0.7185  -0.6485  -0.5908  -0.5755  -0.5654  -0.5538  -0.5474
 -0.5089  -0.4865  -0.4649  -0.4459  -0.3387  -0.3018

          Ground-State Mulliken Net Atomic Charges

     Atom                 Charge (a.u.)
  ----------------------------------------
      1 C                     0.057033
      2 C                    -0.270650
      3 C                     0.042347
      4 H                     0.180416
      5 C                    -0.260371
      6 S                    -0.003229
      7 C                    -0.273361
      8 H                     0.101806
      9 H                     0.107013
     10 H                     0.106921
     11 C                    -0.372109
     12 H                     0.115758
     13 H                     0.148631
     14 H                     0.124603
     15 H                     0.195193
  ----------------------------------------
  Sum of atomic charges =     0.000000

                    Cartesian Multipole Moments
 -----------------------------------------------------------------
    Charge (ESU x 10^10)
                -0.0000
    Dipole Moment (Debye)
         X       0.3411      Y      -0.0405      Z       0.8655
       Tot       0.9312
    Quadrupole Moments (Debye-Ang)
        XX     -53.7348     XY       0.1555     YY     -42.2040
        XZ       0.2377     YZ       1.4142     ZZ     -48.8122

 Total job time:  158.47s(wall), 157.29s(cpu)
        *  Thank you very much for using Q-Chem.  Have a nice day.  *
