 Q-Chem 5.4, Q-Chem, Inc., Pleasanton, CA (2021)
 Q-Chem 5.4.0 for Intel X86 EM64T Linux

User input:
--------------------------------------------------------------
$molecule
0 1
C	-0.587746	-0.237127	0.010154
C	0.160154	0.194673	1.109554
C	1.358654	0.886573	0.786854
H	-0.159246	0.010273	2.146254
C	1.549754	0.996873	-0.602346
S	0.228454	0.234073	-1.476646
C	2.300754	1.430473	1.824754
H	1.932054	1.217573	2.846854
H	2.421154	2.530373	1.736354
H	3.313554	0.984673	1.736354
C	-0.587746	-1.677827	0.010154
H	-0.400346	-1.678027	1.073754
H	0.219054	-2.381627	-0.132046
H	-1.520446	-2.196727	0.174654
H	2.371854	1.471473	-1.151446
$end

$rem
JOBTYPE		SP
EXCHANGE	HF
CORRELATION	pRIMP2
BASIS		cc-pvtz
METHOD		rimp2
AUX_BASIS	rimp2-cc-pvtz
SOLVENT_METHOD	PCM
PURECART	11111
SYMMETRY	false
MEM_TOTAL	110000
SCF_CONVERGENCE = 6
THRESH=10
$end

$solvent
dielectric 4.90
$end
--------------------------------------------------------------

             Standard Nuclear Orientation (Angstroms)
    I     Atom           X                Y                Z
 ----------------------------------------------------------------
    1      C      -0.5877460000    -0.2371270000     0.0101540000
    2      C       0.1601540000     0.1946730000     1.1095540000
    3      C       1.3586540000     0.8865730000     0.7868540000
    4      H      -0.1592460000     0.0102730000     2.1462540000
    5      C       1.5497540000     0.9968730000    -0.6023460000
    6      S       0.2284540000     0.2340730000    -1.4766460000
    7      C       2.3007540000     1.4304730000     1.8247540000
    8      H       1.9320540000     1.2175730000     2.8468540000
    9      H       2.4211540000     2.5303730000     1.7363540000
   10      H       3.3135540000     0.9846730000     1.7363540000
   11      C      -0.5877460000    -1.6778270000     0.0101540000
   12      H      -0.4003460000    -1.6780270000     1.0737540000
   13      H       0.2190540000    -2.3816270000    -0.1320460000
   14      H      -1.5204460000    -2.1967270000     0.1746540000
   15      H       2.3718540000     1.4714730000    -1.1514460000
 ----------------------------------------------------------------

   11    -629.3408798000      4.91e-07  Convergence criterion met
 Total energy in the final basis set =     -629.3408798000
        RIMP2         total energy =      -630.5332177631 a.u.

                    Orbital Energies (a.u.)
 --------------------------------------------------------------

 Alpha MOs
 -- Occupied --
-91.9740 -11.2839 -11.2554 -11.2487 -11.2416 -11.2295 -11.2048  -8.9748
 -6.6556  -6.6547  -6.6545  -1.1758  -1.0568  -1.0028  -0.9328  -0.8827
 -0.7484  -0.7364  -0.6439  -0.5902  -0.5844  -0.5712  -0.5521  -0.5435
 -0.5208  -0.4720  -0.4524  -0.4283  -0.3279  -0.3053

          Ground-State Mulliken Net Atomic Charges

     Atom                 Charge (a.u.)
  ----------------------------------------
      1 C                    -0.111193
      2 C                    -0.107750
      3 C                    -0.028159
      4 H                     0.182155
      5 C                    -0.179307
      6 S                     0.013634
      7 C                    -0.267953
      8 H                     0.101833
      9 H                     0.106696
     10 H                     0.104258
     11 C                    -0.357780
     12 H                     0.109528
     13 H                     0.137032
     14 H                     0.099273
     15 H                     0.197734
  ----------------------------------------
  Sum of atomic charges =     0.000000

                    Cartesian Multipole Moments
 -----------------------------------------------------------------
    Charge (ESU x 10^10)
                -0.0000
    Dipole Moment (Debye)
         X       2.6609      Y       0.2698      Z       2.3114
       Tot       3.5349
    Quadrupole Moments (Debye-Ang)
        XX     -48.0081     XY       3.7480     YY     -50.3165
        XZ      -0.7533     YZ      -0.8647     ZZ     -47.9409

 Total job time:  179.24s(wall), 176.94s(cpu)
        *  Thank you very much for using Q-Chem.  Have a nice day.  *
