 Q-Chem 5.4, Q-Chem, Inc., Pleasanton, CA (2021)
 Q-Chem 5.4.0 for Intel X86 EM64T Linux

User input:
--------------------------------------------------------------
$molecule
0 1
C	-0.289619	-0.512744	0.018946
C	0.075381	0.269956	1.118346
C	0.660281	1.524156	0.795646
H	-0.080519	-0.064344	2.155046
C	0.753581	1.724156	-0.593554
S	0.108681	0.341356	-1.467854
C	1.119981	2.509956	1.833546
H	0.940081	2.124256	2.855646
H	0.587681	3.480156	1.745146
H	2.205281	2.725856	1.745146
C	-0.289619	-1.953444	0.018946
H	0.250481	-1.953644	-0.916254
H	-0.999019	-2.657244	-0.390654
H	0.530581	-2.472344	0.492546
H	1.154681	2.584456	-1.142654
$end

$rem
JOBTYPE		SP
EXCHANGE	HF
CORRELATION	pRIMP2
BASIS		cc-pvtz
METHOD		rimp2
AUX_BASIS	rimp2-cc-pvtz
SOLVENT_METHOD	PCM
PURECART	11111
SYMMETRY	false
MEM_TOTAL	110000
SCF_CONVERGENCE = 6
THRESH=10
$end

$solvent
dielectric 4.90
$end
--------------------------------------------------------------

             Standard Nuclear Orientation (Angstroms)
    I     Atom           X                Y                Z
 ----------------------------------------------------------------
    1      C      -0.2896190000    -0.5127440000     0.0189460000
    2      C       0.0753810000     0.2699560000     1.1183460000
    3      C       0.6602810000     1.5241560000     0.7956460000
    4      H      -0.0805190000    -0.0643440000     2.1550460000
    5      C       0.7535810000     1.7241560000    -0.5935540000
    6      S       0.1086810000     0.3413560000    -1.4678540000
    7      C       1.1199810000     2.5099560000     1.8335460000
    8      H       0.9400810000     2.1242560000     2.8556460000
    9      H       0.5876810000     3.4801560000     1.7451460000
   10      H       2.2052810000     2.7258560000     1.7451460000
   11      C      -0.2896190000    -1.9534440000     0.0189460000
   12      H       0.2504810000    -1.9536440000    -0.9162540000
   13      H      -0.9990190000    -2.6572440000    -0.3906540000
   14      H       0.5305810000    -2.4723440000     0.4925460000
   15      H       1.1546810000     2.5844560000    -1.1426540000
 ----------------------------------------------------------------

   10    -629.4090153275      5.81e-07  Convergence criterion met
 Total energy in the final basis set =     -629.4090153275
        RIMP2         total energy =      -630.5887370454 a.u.

                    Orbital Energies (a.u.)
 --------------------------------------------------------------

 Alpha MOs
 -- Occupied --
-91.9767 -11.2737 -11.2592 -11.2470 -11.2320 -11.2271 -11.2149  -8.9772
 -6.6581  -6.6575  -6.6569  -1.1632  -1.0557  -0.9948  -0.9449  -0.8808
 -0.7483  -0.7198  -0.6465  -0.5908  -0.5772  -0.5655  -0.5518  -0.5479
 -0.5098  -0.4861  -0.4636  -0.4454  -0.3384  -0.2989

          Ground-State Mulliken Net Atomic Charges

     Atom                 Charge (a.u.)
  ----------------------------------------
      1 C                     0.040828
      2 C                    -0.282289
      3 C                     0.051019
      4 H                     0.179395
      5 C                    -0.254042
      6 S                    -0.004470
      7 C                    -0.271201
      8 H                     0.101738
      9 H                     0.107413
     10 H                     0.106435
     11 C                    -0.374475
     12 H                     0.126472
     13 H                     0.142815
     14 H                     0.136091
     15 H                     0.194270
  ----------------------------------------
  Sum of atomic charges =     0.000000

                    Cartesian Multipole Moments
 -----------------------------------------------------------------
    Charge (ESU x 10^10)
                -0.0000
    Dipole Moment (Debye)
         X       1.0331      Y      -0.0757      Z       0.9696
       Tot       1.4188
    Quadrupole Moments (Debye-Ang)
        XX     -52.6262     XY       2.7533     YY     -44.0170
        XZ       0.4544     YZ       1.4274     ZZ     -48.6302

 Total job time:  158.21s(wall), 156.38s(cpu)
        *  Thank you very much for using Q-Chem.  Have a nice day.  *
