 Q-Chem 5.4, Q-Chem, Inc., Pleasanton, CA (2021)
 Q-Chem 5.4.0 for Intel X86 EM64T Linux

User input:
--------------------------------------------------------------
$molecule
0 1
C	-0.335263	-0.485419	0.017956
C	0.096537	0.262481	1.117356
C	0.788537	1.460981	0.794656
H	-0.087863	-0.056919	2.154056
C	0.898837	1.652081	-0.594544
S	0.135937	0.330681	-1.468844
C	1.332437	2.402981	1.832556
H	1.119637	2.034381	2.854656
H	0.886737	3.415781	1.744156
H	2.432437	2.523381	1.744156
C	-0.335263	-1.926119	0.017956
H	-1.270463	-1.926319	-0.522144
H	-0.744863	-2.629919	0.727356
H	0.138337	-2.445019	-0.802244
H	1.373537	2.474081	-1.143644
$end

$rem
JOBTYPE		SP
EXCHANGE	HF
CORRELATION	pRIMP2
BASIS		cc-pvtz
METHOD		rimp2
AUX_BASIS	rimp2-cc-pvtz
SOLVENT_METHOD	PCM
PURECART	11111
SYMMETRY	false
MEM_TOTAL	110000
SCF_CONVERGENCE = 6
THRESH=10
$end

$solvent
dielectric 4.90
$end
--------------------------------------------------------------

   10    -629.4001590679      5.33e-07  Convergence criterion met
 Total energy in the final basis set =     -629.4001590679
        RIMP2         total energy =      -630.5812104627 a.u.
 Total job time:  156.85s(wall), 155.00s(cpu)
        *  Thank you very much for using Q-Chem.  Have a nice day.  *
 Q-Chem 5.4, Q-Chem, Inc., Pleasanton, CA (2021)
 Q-Chem 5.4.0 for Intel X86 EM64T Linux

User input:
--------------------------------------------------------------
$molecule
0 1
C	-0.335263	-0.485419	0.017956
C	0.096537	0.262481	1.117356
C	0.788537	1.460981	0.794656
H	-0.087863	-0.056919	2.154056
C	0.898837	1.652081	-0.594544
S	0.135937	0.330681	-1.468844
C	1.332437	2.402981	1.832556
H	1.119637	2.034381	2.854656
H	0.886737	3.415781	1.744156
H	2.432437	2.523381	1.744156
C	-0.335263	-1.926119	0.017956
H	-1.270463	-1.926319	-0.522144
H	-0.744863	-2.629919	0.727356
H	0.138337	-2.445019	-0.802244
H	1.373537	2.474081	-1.143644
$end

$rem
JOBTYPE		SP
EXCHANGE	HF
CORRELATION	pRIMP2
BASIS		cc-pvtz
METHOD		rimp2
AUX_BASIS	rimp2-cc-pvtz
SOLVENT_METHOD	PCM
PURECART	11111
SYMMETRY	false
MEM_TOTAL	110000
SCF_CONVERGENCE = 6
THRESH=10
$end

$solvent
dielectric 4.90
$end
--------------------------------------------------------------

             Standard Nuclear Orientation (Angstroms)
    I     Atom           X                Y                Z
 ----------------------------------------------------------------
    1      C      -0.3352630000    -0.4854190000     0.0179560000
    2      C       0.0965370000     0.2624810000     1.1173560000
    3      C       0.7885370000     1.4609810000     0.7946560000
    4      H      -0.0878630000    -0.0569190000     2.1540560000
    5      C       0.8988370000     1.6520810000    -0.5945440000
    6      S       0.1359370000     0.3306810000    -1.4688440000
    7      C       1.3324370000     2.4029810000     1.8325560000
    8      H       1.1196370000     2.0343810000     2.8546560000
    9      H       0.8867370000     3.4157810000     1.7441560000
   10      H       2.4324370000     2.5233810000     1.7441560000
   11      C      -0.3352630000    -1.9261190000     0.0179560000
   12      H      -1.2704630000    -1.9263190000    -0.5221440000
   13      H      -0.7448630000    -2.6299190000     0.7273560000
   14      H       0.1383370000    -2.4450190000    -0.8022440000
   15      H       1.3735370000     2.4740810000    -1.1436440000
 ----------------------------------------------------------------

   10    -629.4001590679      5.33e-07  Convergence criterion met
 Total energy in the final basis set =     -629.4001590679
        RIMP2         total energy =      -630.5812104627 a.u.

                    Orbital Energies (a.u.)
 --------------------------------------------------------------

 Alpha MOs
 -- Occupied --
-91.9782 -11.2728 -11.2583 -11.2471 -11.2295 -11.2267 -11.2147  -8.9783
 -6.6592  -6.6587  -6.6581  -1.1621  -1.0547  -0.9954  -0.9439  -0.8818
 -0.7464  -0.7200  -0.6459  -0.5881  -0.5738  -0.5685  -0.5525  -0.5457
 -0.5113  -0.4876  -0.4589  -0.4514  -0.3379  -0.2905

          Ground-State Mulliken Net Atomic Charges

     Atom                 Charge (a.u.)
  ----------------------------------------
      1 C                    -0.003779
      2 C                    -0.242990
      3 C                     0.036331
      4 H                     0.180312
      5 C                    -0.251077
      6 S                    -0.002172
      7 C                    -0.271805
      8 H                     0.101428
      9 H                     0.107045
     10 H                     0.106091
     11 C                    -0.377651
     12 H                     0.126762
     13 H                     0.156076
     14 H                     0.140634
     15 H                     0.194793
  ----------------------------------------
  Sum of atomic charges =     0.000000

                    Cartesian Multipole Moments
 -----------------------------------------------------------------
    Charge (ESU x 10^10)
                -0.0000
    Dipole Moment (Debye)
         X       0.2205      Y      -0.2174      Z       1.1738
       Tot       1.2139
    Quadrupole Moments (Debye-Ang)
        XX     -51.8578     XY       5.1399     YY     -44.4991
        XZ      -0.1980     YZ       0.6353     ZZ     -48.4385

 Total job time:  155.96s(wall), 155.06s(cpu)
        *  Thank you very much for using Q-Chem.  Have a nice day.  *
