 Q-Chem 5.4, Q-Chem, Inc., Pleasanton, CA (2021)
 Q-Chem 5.4.0 for Intel X86 EM64T Linux

User input:
--------------------------------------------------------------
$molecule
0 1
C	0.003896	-0.576312	0.012109
C	0.003896	0.287288	1.111509
C	0.003996	1.671188	0.788809
H	0.003896	-0.081512	2.148209
C	0.003996	1.891888	-0.600391
S	0.003896	0.366088	-1.474691
C	0.003996	2.758988	1.826709
H	0.003996	2.333288	2.848809
H	-0.888404	3.413288	1.738309
H	0.896396	3.413188	1.738309
C	0.003896	-2.017012	0.012109
H	-0.931504	-2.016712	0.552009
H	-0.405604	-2.720812	-0.697391
H	0.477496	-2.535912	0.832309
H	0.003996	2.841088	-1.149491
$end

$rem
JOBTYPE		SP
EXCHANGE	HF
CORRELATION	pRIMP2
BASIS		cc-pvtz
METHOD		rimp2
AUX_BASIS	rimp2-cc-pvtz
SOLVENT_METHOD	PCM
PURECART	11111
SYMMETRY	false
MEM_TOTAL	110000
SCF_CONVERGENCE = 6
THRESH=10
$end

$solvent
dielectric 4.90
$end
--------------------------------------------------------------

   10    -629.4239564413      6.45e-07  Convergence criterion met
 Total energy in the final basis set =     -629.4239564413
        RIMP2         total energy =      -630.6003596055 a.u.
 Total job time:  156.71s(wall), 155.27s(cpu)
        *  Thank you very much for using Q-Chem.  Have a nice day.  *
 Q-Chem 5.4, Q-Chem, Inc., Pleasanton, CA (2021)
 Q-Chem 5.4.0 for Intel X86 EM64T Linux

User input:
--------------------------------------------------------------
$molecule
0 1
C	0.003896	-0.576312	0.012109
C	0.003896	0.287288	1.111509
C	0.003996	1.671188	0.788809
H	0.003896	-0.081512	2.148209
C	0.003996	1.891888	-0.600391
S	0.003896	0.366088	-1.474691
C	0.003996	2.758988	1.826709
H	0.003996	2.333288	2.848809
H	-0.888404	3.413288	1.738309
H	0.896396	3.413188	1.738309
C	0.003896	-2.017012	0.012109
H	-0.931504	-2.016712	0.552009
H	-0.405604	-2.720812	-0.697391
H	0.477496	-2.535912	0.832309
H	0.003996	2.841088	-1.149491
$end

$rem
JOBTYPE		SP
EXCHANGE	HF
CORRELATION	pRIMP2
BASIS		cc-pvtz
METHOD		rimp2
AUX_BASIS	rimp2-cc-pvtz
SOLVENT_METHOD	PCM
PURECART	11111
SYMMETRY	false
MEM_TOTAL	110000
SCF_CONVERGENCE = 6
THRESH=10
$end

$solvent
dielectric 4.90
$end
--------------------------------------------------------------

             Standard Nuclear Orientation (Angstroms)
    I     Atom           X                Y                Z
 ----------------------------------------------------------------
    1      C       0.0038960000    -0.5763120000     0.0121090000
    2      C       0.0038960000     0.2872880000     1.1115090000
    3      C       0.0039960000     1.6711880000     0.7888090000
    4      H       0.0038960000    -0.0815120000     2.1482090000
    5      C       0.0039960000     1.8918880000    -0.6003910000
    6      S       0.0038960000     0.3660880000    -1.4746910000
    7      C       0.0039960000     2.7589880000     1.8267090000
    8      H       0.0039960000     2.3332880000     2.8488090000
    9      H      -0.8884040000     3.4132880000     1.7383090000
   10      H       0.8963960000     3.4131880000     1.7383090000
   11      C       0.0038960000    -2.0170120000     0.0121090000
   12      H      -0.9315040000    -2.0167120000     0.5520090000
   13      H      -0.4056040000    -2.7208120000    -0.6973910000
   14      H       0.4774960000    -2.5359120000     0.8323090000
   15      H       0.0039960000     2.8410880000    -1.1494910000
 ----------------------------------------------------------------

   10    -629.4239564413      6.45e-07  Convergence criterion met
 Total energy in the final basis set =     -629.4239564413
        RIMP2         total energy =      -630.6003596055 a.u.

                    Orbital Energies (a.u.)
 --------------------------------------------------------------

 Alpha MOs
 -- Occupied --
-91.9775 -11.2849 -11.2492 -11.2472 -11.2267 -11.2252 -11.2206  -8.9773
 -6.6583  -6.6577  -6.6571  -1.1602  -1.0556  -0.9985  -0.9403  -0.8834
 -0.7425  -0.7198  -0.6481  -0.5906  -0.5735  -0.5708  -0.5568  -0.5439
 -0.5086  -0.4902  -0.4657  -0.4523  -0.3375  -0.2910

          Ground-State Mulliken Net Atomic Charges

     Atom                 Charge (a.u.)
  ----------------------------------------
      1 C                     0.075094
      2 C                    -0.299034
      3 C                     0.043847
      4 H                     0.175687
      5 C                    -0.275759
      6 S                    -0.002390
      7 C                    -0.275417
      8 H                     0.101154
      9 H                     0.107284
     10 H                     0.107371
     11 C                    -0.390491
     12 H                     0.140748
     13 H                     0.161607
     14 H                     0.138519
     15 H                     0.191779
  ----------------------------------------
  Sum of atomic charges =     0.000000

                    Cartesian Multipole Moments
 -----------------------------------------------------------------
    Charge (ESU x 10^10)
                -0.0000
    Dipole Moment (Debye)
         X      -0.6305      Y      -0.6630      Z       1.7804
       Tot       2.0017
    Quadrupole Moments (Debye-Ang)
        XX     -54.2065     XY       1.4432     YY     -41.8812
        XZ       0.2423     YZ      -0.2605     ZZ     -48.6645

 Total job time:  157.01s(wall), 154.97s(cpu)
        *  Thank you very much for using Q-Chem.  Have a nice day.  *
