 Q-Chem 5.4, Q-Chem, Inc., Pleasanton, CA (2021)
 Q-Chem 5.4.0 for Intel X86 EM64T Linux

User input:
--------------------------------------------------------------
$molecule
0 1
C	-0.228452	-0.535395	0.011685
C	0.066948	0.276105	1.111085
C	0.540248	1.576505	0.788385
H	-0.059152	-0.070395	2.147785
C	0.615748	1.783905	-0.600815
S	0.093848	0.350205	-1.475115
C	0.912348	2.598705	1.826285
H	0.766748	2.198705	2.848385
H	0.297548	3.518705	1.737885
H	1.974748	2.908305	1.737885
C	-0.228452	-1.976095	0.011685
H	-0.922752	-1.976295	0.838985
H	0.399048	-2.679895	0.538285
H	-0.954052	-2.494995	-0.597115
H	0.940448	2.675905	-1.149915
$end

$rem
JOBTYPE		SP
EXCHANGE	HF
CORRELATION	pRIMP2
BASIS		cc-pvtz
METHOD		rimp2
AUX_BASIS	rimp2-cc-pvtz
SOLVENT_METHOD	PCM
PURECART	11111
SYMMETRY	false
MEM_TOTAL	110000
SCF_CONVERGENCE = 6
THRESH=10
$end

$solvent
dielectric 4.90
$end
--------------------------------------------------------------

   10    -629.4156168878      5.34e-07  Convergence criterion met
 Total energy in the final basis set =     -629.4156168878
        RIMP2         total energy =      -630.5952323941 a.u.
 Total job time:  158.10s(wall), 155.91s(cpu)
        *  Thank you very much for using Q-Chem.  Have a nice day.  *
 Q-Chem 5.4, Q-Chem, Inc., Pleasanton, CA (2021)
 Q-Chem 5.4.0 for Intel X86 EM64T Linux

User input:
--------------------------------------------------------------
$molecule
0 1
C	-0.228452	-0.535395	0.011685
C	0.066948	0.276105	1.111085
C	0.540248	1.576505	0.788385
H	-0.059152	-0.070395	2.147785
C	0.615748	1.783905	-0.600815
S	0.093848	0.350205	-1.475115
C	0.912348	2.598705	1.826285
H	0.766748	2.198705	2.848385
H	0.297548	3.518705	1.737885
H	1.974748	2.908305	1.737885
C	-0.228452	-1.976095	0.011685
H	-0.922752	-1.976295	0.838985
H	0.399048	-2.679895	0.538285
H	-0.954052	-2.494995	-0.597115
H	0.940448	2.675905	-1.149915
$end

$rem
JOBTYPE		SP
EXCHANGE	HF
CORRELATION	pRIMP2
BASIS		cc-pvtz
METHOD		rimp2
AUX_BASIS	rimp2-cc-pvtz
SOLVENT_METHOD	PCM
PURECART	11111
SYMMETRY	false
MEM_TOTAL	110000
SCF_CONVERGENCE = 6
THRESH=10
$end

$solvent
dielectric 4.90
$end
--------------------------------------------------------------

             Standard Nuclear Orientation (Angstroms)
    I     Atom           X                Y                Z
 ----------------------------------------------------------------
    1      C      -0.2284520000    -0.5353950000     0.0116850000
    2      C       0.0669480000     0.2761050000     1.1110850000
    3      C       0.5402480000     1.5765050000     0.7883850000
    4      H      -0.0591520000    -0.0703950000     2.1477850000
    5      C       0.6157480000     1.7839050000    -0.6008150000
    6      S       0.0938480000     0.3502050000    -1.4751150000
    7      C       0.9123480000     2.5987050000     1.8262850000
    8      H       0.7667480000     2.1987050000     2.8483850000
    9      H       0.2975480000     3.5187050000     1.7378850000
   10      H       1.9747480000     2.9083050000     1.7378850000
   11      C      -0.2284520000    -1.9760950000     0.0116850000
   12      H      -0.9227520000    -1.9762950000     0.8389850000
   13      H       0.3990480000    -2.6798950000     0.5382850000
   14      H      -0.9540520000    -2.4949950000    -0.5971150000
   15      H       0.9404480000     2.6759050000    -1.1499150000
 ----------------------------------------------------------------

   10    -629.4156168878      5.34e-07  Convergence criterion met
 Total energy in the final basis set =     -629.4156168878
        RIMP2         total energy =      -630.5952323941 a.u.

                    Orbital Energies (a.u.)
 --------------------------------------------------------------

 Alpha MOs
 -- Occupied --
-91.9753 -11.2757 -11.2573 -11.2475 -11.2329 -11.2273 -11.2162  -8.9754
 -6.6564  -6.6557  -6.6552  -1.1612  -1.0540  -0.9987  -0.9403  -0.8840
 -0.7429  -0.7229  -0.6488  -0.5875  -0.5766  -0.5652  -0.5598  -0.5429
 -0.5116  -0.4882  -0.4641  -0.4420  -0.3376  -0.2974

          Ground-State Mulliken Net Atomic Charges

     Atom                 Charge (a.u.)
  ----------------------------------------
      1 C                     0.039132
      2 C                    -0.280253
      3 C                     0.040269
      4 H                     0.178097
      5 C                    -0.253745
      6 S                    -0.002586
      7 C                    -0.272931
      8 H                     0.101268
      9 H                     0.106960
     10 H                     0.107111
     11 C                    -0.369367
     12 H                     0.126300
     13 H                     0.152235
     14 H                     0.134825
     15 H                     0.192685
  ----------------------------------------
  Sum of atomic charges =     0.000000

                    Cartesian Multipole Moments
 -----------------------------------------------------------------
    Charge (ESU x 10^10)
                -0.0000
    Dipole Moment (Debye)
         X       0.0707      Y      -0.1655      Z       2.0157
       Tot       2.0237
    Quadrupole Moments (Debye-Ang)
        XX     -52.8093     XY       3.7655     YY     -43.2758
        XZ       0.2808     YZ      -0.8911     ZZ     -48.7012

 Total job time:  158.38s(wall), 156.42s(cpu)
        *  Thank you very much for using Q-Chem.  Have a nice day.  *
