 Q-Chem 5.4, Q-Chem, Inc., Pleasanton, CA (2021)
 Q-Chem 5.4.0 for Intel X86 EM64T Linux

User input:
--------------------------------------------------------------
$molecule
0 1
C	-0.055798	-0.573727	0.018592
C	0.019502	0.286573	1.117992
C	0.140102	1.665273	0.795292
H	-0.012598	-0.080827	2.154692
C	0.159402	1.885073	-0.593908
S	0.026402	0.365073	-1.468208
C	0.235002	2.748873	1.833192
H	0.197902	2.324773	2.855292
H	-0.596998	3.478373	1.744792
H	1.181002	3.322873	1.744792
C	-0.055798	-2.014427	0.018592
H	-0.883098	-2.014627	-0.675708
H	-0.582398	-2.718227	0.646092
H	0.553002	-2.533327	-0.707008
H	0.242102	2.830673	-1.143008
$end

$rem
JOBTYPE		SP
EXCHANGE	HF
CORRELATION	pRIMP2
BASIS		cc-pvtz
METHOD		rimp2
AUX_BASIS	rimp2-cc-pvtz
SOLVENT_METHOD	PCM
PURECART	11111
SYMMETRY	false
MEM_TOTAL	110000
SCF_CONVERGENCE = 6
THRESH=10
$end

$solvent
dielectric 4.90
$end
--------------------------------------------------------------

             Standard Nuclear Orientation (Angstroms)
    I     Atom           X                Y                Z
 ----------------------------------------------------------------
    1      C      -0.0557980000    -0.5737270000     0.0185920000
    2      C       0.0195020000     0.2865730000     1.1179920000
    3      C       0.1401020000     1.6652730000     0.7952920000
    4      H      -0.0125980000    -0.0808270000     2.1546920000
    5      C       0.1594020000     1.8850730000    -0.5939080000
    6      S       0.0264020000     0.3650730000    -1.4682080000
    7      C       0.2350020000     2.7488730000     1.8331920000
    8      H       0.1979020000     2.3247730000     2.8552920000
    9      H      -0.5969980000     3.4783730000     1.7447920000
   10      H       1.1810020000     3.3228730000     1.7447920000
   11      C      -0.0557980000    -2.0144270000     0.0185920000
   12      H      -0.8830980000    -2.0146270000    -0.6757080000
   13      H      -0.5823980000    -2.7182270000     0.6460920000
   14      H       0.5530020000    -2.5333270000    -0.7070080000
   15      H       0.2421020000     2.8306730000    -1.1430080000
 ----------------------------------------------------------------

   10    -629.4220708871      6.35e-07  Convergence criterion met
 Total energy in the final basis set =     -629.4220708871
        RIMP2         total energy =      -630.5981102336 a.u.

                    Orbital Energies (a.u.)
 --------------------------------------------------------------

 Alpha MOs
 -- Occupied --
-91.9792 -11.2808 -11.2532 -11.2467 -11.2265 -11.2254 -11.2191  -8.9791
 -6.6601  -6.6596  -6.6589  -1.1604  -1.0557  -0.9959  -0.9450  -0.8819
 -0.7459  -0.7181  -0.6488  -0.5896  -0.5751  -0.5660  -0.5530  -0.5472
 -0.5082  -0.4901  -0.4651  -0.4528  -0.3391  -0.2940

          Ground-State Mulliken Net Atomic Charges

     Atom                 Charge (a.u.)
  ----------------------------------------
      1 C                     0.049373
      2 C                    -0.277382
      3 C                     0.038238
      4 H                     0.180599
      5 C                    -0.262604
      6 S                    -0.005570
      7 C                    -0.273820
      8 H                     0.101446
      9 H                     0.107056
     10 H                     0.107227
     11 C                    -0.376256
     12 H                     0.125005
     13 H                     0.160054
     14 H                     0.132227
     15 H                     0.194407
  ----------------------------------------
  Sum of atomic charges =     0.000000

                    Cartesian Multipole Moments
 -----------------------------------------------------------------
    Charge (ESU x 10^10)
                -0.0000
    Dipole Moment (Debye)
         X      -0.4108      Y      -0.3841      Z       0.9954
       Tot       1.1433
    Quadrupole Moments (Debye-Ang)
        XX     -54.0001     XY       2.0071     YY     -41.9175
        XZ      -0.2880     YZ       1.0573     ZZ     -48.7089

 Total job time:  157.76s(wall), 157.07s(cpu)
        *  Thank you very much for using Q-Chem.  Have a nice day.  *
