 Q-Chem 5.4, Q-Chem, Inc., Pleasanton, CA (2021)
 Q-Chem 5.4.0 for Intel X86 EM64T Linux

User input:
--------------------------------------------------------------
$molecule
0 1
C	-0.054389	-0.573727	0.013913
C	0.020911	0.286573	1.113313
C	0.141511	1.665273	0.790613
H	-0.011189	-0.080827	2.150013
C	0.160811	1.885073	-0.598587
S	0.027811	0.365073	-1.472887
C	0.236411	2.748873	1.828513
H	0.199311	2.324773	2.850613
H	-0.595589	3.478373	1.740113
H	1.182411	3.322873	1.740113
C	-0.054389	-2.014427	0.013913
H	-1.069289	-2.014627	0.383213
H	0.225711	-2.718227	0.783713
H	-0.378289	-2.533327	-0.876087
H	0.243511	2.830673	-1.147687
$end

$rem
JOBTYPE		SP
EXCHANGE	HF
CORRELATION	pRIMP2
BASIS		cc-pvtz
METHOD		rimp2
AUX_BASIS	rimp2-cc-pvtz
SOLVENT_METHOD	PCM
PURECART	11111
SYMMETRY	false
MEM_TOTAL	110000
SCF_CONVERGENCE = 6
THRESH=10
$end

$solvent
dielectric 4.90
$end
--------------------------------------------------------------

             Standard Nuclear Orientation (Angstroms)
    I     Atom           X                Y                Z
 ----------------------------------------------------------------
    1      C      -0.0543890000    -0.5737270000     0.0139130000
    2      C       0.0209110000     0.2865730000     1.1133130000
    3      C       0.1415110000     1.6652730000     0.7906130000
    4      H      -0.0111890000    -0.0808270000     2.1500130000
    5      C       0.1608110000     1.8850730000    -0.5985870000
    6      S       0.0278110000     0.3650730000    -1.4728870000
    7      C       0.2364110000     2.7488730000     1.8285130000
    8      H       0.1993110000     2.3247730000     2.8506130000
    9      H      -0.5955890000     3.4783730000     1.7401130000
   10      H       1.1824110000     3.3228730000     1.7401130000
   11      C      -0.0543890000    -2.0144270000     0.0139130000
   12      H      -1.0692890000    -2.0146270000     0.3832130000
   13      H       0.2257110000    -2.7182270000     0.7837130000
   14      H      -0.3782890000    -2.5333270000    -0.8760870000
   15      H       0.2435110000     2.8306730000    -1.1476870000
 ----------------------------------------------------------------

   10    -629.4229555498      6.69e-07  Convergence criterion met
 Total energy in the final basis set =     -629.4229555498
        RIMP2         total energy =      -630.5990560213 a.u.

                    Orbital Energies (a.u.)
 --------------------------------------------------------------

 Alpha MOs
 -- Occupied --
-91.9787 -11.2843 -11.2492 -11.2470 -11.2264 -11.2236 -11.2209  -8.9784
 -6.6594  -6.6588  -6.6582  -1.1600  -1.0557  -0.9978  -0.9415  -0.8830
 -0.7430  -0.7194  -0.6497  -0.5870  -0.5731  -0.5675  -0.5573  -0.5449
 -0.5080  -0.4934  -0.4645  -0.4551  -0.3378  -0.2895

          Ground-State Mulliken Net Atomic Charges

     Atom                 Charge (a.u.)
  ----------------------------------------
      1 C                     0.069891
      2 C                    -0.311350
      3 C                     0.050938
      4 H                     0.174660
      5 C                    -0.278482
      6 S                     0.003743
      7 C                    -0.275031
      8 H                     0.101277
      9 H                     0.107245
     10 H                     0.107279
     11 C                    -0.382634
     12 H                     0.141659
     13 H                     0.161179
     14 H                     0.137349
     15 H                     0.192276
  ----------------------------------------
  Sum of atomic charges =     0.000000

                    Cartesian Multipole Moments
 -----------------------------------------------------------------
    Charge (ESU x 10^10)
                -0.0000
    Dipole Moment (Debye)
         X      -0.6040      Y      -0.6706      Z       1.6363
       Tot       1.8687
    Quadrupole Moments (Debye-Ang)
        XX     -54.1799     XY       2.2323     YY     -41.9125
        XZ       0.1758     YZ      -0.2978     ZZ     -48.5723

 Total job time:  162.37s(wall), 159.64s(cpu)
        *  Thank you very much for using Q-Chem.  Have a nice day.  *
