 Q-Chem 5.4, Q-Chem, Inc., Pleasanton, CA (2021)
 Q-Chem 5.4.0 for Intel X86 EM64T Linux

User input:
--------------------------------------------------------------
$molecule
0 1
C	-0.119219	-0.566010	0.010354
C	0.030781	0.284490	1.109754
C	0.271081	1.647390	0.787054
H	-0.033319	-0.078710	2.146454
C	0.309481	1.864690	-0.602146
S	0.044481	0.362090	-1.476446
C	0.459981	2.718590	1.824954
H	0.386081	2.299390	2.847054
H	-0.305219	3.517890	1.736554
H	1.452481	3.207890	1.736554
C	-0.119219	-2.006710	0.010354
H	0.068181	-2.006410	1.073954
H	-0.926019	-2.710510	0.152554
H	0.813481	-2.525610	-0.154146
H	0.474281	2.799390	-1.151246
$end

$rem
JOBTYPE		SP
EXCHANGE	HF
CORRELATION	pRIMP2
BASIS		cc-pvtz
METHOD		rimp2
AUX_BASIS	rimp2-cc-pvtz
SOLVENT_METHOD	PCM
PURECART	11111
SYMMETRY	false
MEM_TOTAL	110000
SCF_CONVERGENCE = 6
THRESH=10
$end

$solvent
dielectric 4.90
$end
--------------------------------------------------------------

   10    -629.4231244308      4.93e-07  Convergence criterion met
 Total energy in the final basis set =     -629.4231244308
        RIMP2         total energy =      -630.6012924840 a.u.
 Total job time:  156.81s(wall), 155.26s(cpu)
        *  Thank you very much for using Q-Chem.  Have a nice day.  *
 Q-Chem 5.4, Q-Chem, Inc., Pleasanton, CA (2021)
 Q-Chem 5.4.0 for Intel X86 EM64T Linux

User input:
--------------------------------------------------------------
$molecule
0 1
C	-0.119219	-0.566010	0.010354
C	0.030781	0.284490	1.109754
C	0.271081	1.647390	0.787054
H	-0.033319	-0.078710	2.146454
C	0.309481	1.864690	-0.602146
S	0.044481	0.362090	-1.476446
C	0.459981	2.718590	1.824954
H	0.386081	2.299390	2.847054
H	-0.305219	3.517890	1.736554
H	1.452481	3.207890	1.736554
C	-0.119219	-2.006710	0.010354
H	0.068181	-2.006410	1.073954
H	-0.926019	-2.710510	0.152554
H	0.813481	-2.525610	-0.154146
H	0.474281	2.799390	-1.151246
$end

$rem
JOBTYPE		SP
EXCHANGE	HF
CORRELATION	pRIMP2
BASIS		cc-pvtz
METHOD		rimp2
AUX_BASIS	rimp2-cc-pvtz
SOLVENT_METHOD	PCM
PURECART	11111
SYMMETRY	false
MEM_TOTAL	110000
SCF_CONVERGENCE = 6
THRESH=10
$end

$solvent
dielectric 4.90
$end
--------------------------------------------------------------

             Standard Nuclear Orientation (Angstroms)
    I     Atom           X                Y                Z
 ----------------------------------------------------------------
    1      C      -0.1192190000    -0.5660100000     0.0103540000
    2      C       0.0307810000     0.2844900000     1.1097540000
    3      C       0.2710810000     1.6473900000     0.7870540000
    4      H      -0.0333190000    -0.0787100000     2.1464540000
    5      C       0.3094810000     1.8646900000    -0.6021460000
    6      S       0.0444810000     0.3620900000    -1.4764460000
    7      C       0.4599810000     2.7185900000     1.8249540000
    8      H       0.3860810000     2.2993900000     2.8470540000
    9      H      -0.3052190000     3.5178900000     1.7365540000
   10      H       1.4524810000     3.2078900000     1.7365540000
   11      C      -0.1192190000    -2.0067100000     0.0103540000
   12      H       0.0681810000    -2.0064100000     1.0739540000
   13      H      -0.9260190000    -2.7105100000     0.1525540000
   14      H       0.8134810000    -2.5256100000    -0.1541460000
   15      H       0.4742810000     2.7993900000    -1.1512460000
 ----------------------------------------------------------------

   10    -629.4231244308      4.93e-07  Convergence criterion met
 Total energy in the final basis set =     -629.4231244308
        RIMP2         total energy =      -630.6012924840 a.u.

                    Orbital Energies (a.u.)
 --------------------------------------------------------------

 Alpha MOs
 -- Occupied --
-91.9751 -11.2773 -11.2575 -11.2470 -11.2341 -11.2274 -11.2162  -8.9752
 -6.6561  -6.6556  -6.6551  -1.1613  -1.0540  -0.9996  -0.9395  -0.8843
 -0.7424  -0.7244  -0.6486  -0.5917  -0.5776  -0.5660  -0.5597  -0.5420
 -0.5102  -0.4846  -0.4681  -0.4381  -0.3377  -0.3037

          Ground-State Mulliken Net Atomic Charges

     Atom                 Charge (a.u.)
  ----------------------------------------
      1 C                     0.062419
      2 C                    -0.271304
      3 C                     0.032460
      4 H                     0.177082
      5 C                    -0.250359
      6 S                    -0.008252
      7 C                    -0.273281
      8 H                     0.101070
      9 H                     0.107171
     10 H                     0.107236
     11 C                    -0.374012
     12 H                     0.122164
     13 H                     0.144662
     14 H                     0.129749
     15 H                     0.193193
  ----------------------------------------
  Sum of atomic charges =     0.000000

                    Cartesian Multipole Moments
 -----------------------------------------------------------------
    Charge (ESU x 10^10)
                -0.0000
    Dipole Moment (Debye)
         X       0.3909      Y      -0.0753      Z       2.1397
       Tot       2.1765
    Quadrupole Moments (Debye-Ang)
        XX     -53.4963     XY       1.3336     YY     -42.4859
        XZ      -0.1465     YZ      -1.0961     ZZ     -48.9309

 Total job time:  157.96s(wall), 156.50s(cpu)
        *  Thank you very much for using Q-Chem.  Have a nice day.  *
