 Q-Chem 5.4, Q-Chem, Inc., Pleasanton, CA (2021)
 Q-Chem 5.4.0 for Intel X86 EM64T Linux

User input:
--------------------------------------------------------------
$molecule
0 1
C	-0.590148	-0.237127	0.010945
C	0.157752	0.194673	1.110345
C	1.356252	0.886573	0.787645
H	-0.161648	0.010273	2.147045
C	1.547352	0.996873	-0.601555
S	0.226052	0.234073	-1.475855
C	2.298352	1.430473	1.825545
H	1.929652	1.217573	2.847645
H	2.418752	2.530373	1.737145
H	3.311152	0.984673	1.737145
C	-0.590148	-1.677827	0.010945
H	0.103952	-1.678027	0.838345
H	0.037452	-2.381627	-0.515555
H	-1.315648	-2.196727	0.619745
H	2.369452	1.471473	-1.150655
$end

$rem
JOBTYPE		SP
EXCHANGE	HF
CORRELATION	pRIMP2
BASIS		cc-pvtz
METHOD		rimp2
AUX_BASIS	rimp2-cc-pvtz
SOLVENT_METHOD	PCM
PURECART	11111
SYMMETRY	false
MEM_TOTAL	110000
SCF_CONVERGENCE = 6
THRESH=10
$end

$solvent
dielectric 4.90
$end
--------------------------------------------------------------

             Standard Nuclear Orientation (Angstroms)
    I     Atom           X                Y                Z
 ----------------------------------------------------------------
    1      C      -0.5901480000    -0.2371270000     0.0109450000
    2      C       0.1577520000     0.1946730000     1.1103450000
    3      C       1.3562520000     0.8865730000     0.7876450000
    4      H      -0.1616480000     0.0102730000     2.1470450000
    5      C       1.5473520000     0.9968730000    -0.6015550000
    6      S       0.2260520000     0.2340730000    -1.4758550000
    7      C       2.2983520000     1.4304730000     1.8255450000
    8      H       1.9296520000     1.2175730000     2.8476450000
    9      H       2.4187520000     2.5303730000     1.7371450000
   10      H       3.3111520000     0.9846730000     1.7371450000
   11      C      -0.5901480000    -1.6778270000     0.0109450000
   12      H       0.1039520000    -1.6780270000     0.8383450000
   13      H       0.0374520000    -2.3816270000    -0.5155550000
   14      H      -1.3156480000    -2.1967270000     0.6197450000
   15      H       2.3694520000     1.4714730000    -1.1506550000
 ----------------------------------------------------------------

   11    -629.3315320362      7.56e-07  Convergence criterion met
 Total energy in the final basis set =     -629.3315320362
        RIMP2         total energy =      -630.5265601917 a.u.

                    Orbital Energies (a.u.)
 --------------------------------------------------------------

 Alpha MOs
 -- Occupied --
-91.9784 -11.2811 -11.2507 -11.2491 -11.2454 -11.2294 -11.2044  -8.9787
 -6.6595  -6.6586  -6.6584  -1.1774  -1.0575  -1.0027  -0.9326  -0.8818
 -0.7488  -0.7345  -0.6439  -0.5908  -0.5811  -0.5737  -0.5529  -0.5454
 -0.5183  -0.4759  -0.4496  -0.4432  -0.3289  -0.2907

          Ground-State Mulliken Net Atomic Charges

     Atom                 Charge (a.u.)
  ----------------------------------------
      1 C                    -0.116381
      2 C                    -0.102240
      3 C                    -0.035737
      4 H                     0.186197
      5 C                    -0.192389
      6 S                     0.026614
      7 C                    -0.267286
      8 H                     0.102059
      9 H                     0.107100
     10 H                     0.103364
     11 C                    -0.380062
     12 H                     0.121429
     13 H                     0.146771
     14 H                     0.101920
     15 H                     0.198641
  ----------------------------------------
  Sum of atomic charges =     0.000000

                    Cartesian Multipole Moments
 -----------------------------------------------------------------
    Charge (ESU x 10^10)
                -0.0000
    Dipole Moment (Debye)
         X       2.8114      Y       0.1009      Z       2.0452
       Tot       3.4781
    Quadrupole Moments (Debye-Ang)
        XX     -48.6666     XY       3.3579     YY     -50.3629
        XZ      -0.7946     YZ      -0.6485     ZZ     -47.5245

 Total job time:  181.22s(wall), 179.04s(cpu)
        *  Thank you very much for using Q-Chem.  Have a nice day.  *
