 Q-Chem 5.4, Q-Chem, Inc., Pleasanton, CA (2021)
 Q-Chem 5.4.0 for Intel X86 EM64T Linux

User input:
--------------------------------------------------------------
$molecule
0 1
C	-0.245740	-0.536207	0.014457
C	0.049660	0.275293	1.113857
C	0.522960	1.575693	0.791157
H	-0.076440	-0.071207	2.150557
C	0.598460	1.783093	-0.598043
S	0.076560	0.349393	-1.472343
C	0.895060	2.597893	1.829057
H	0.749460	2.197893	2.851157
H	0.280260	3.517893	1.740657
H	1.957460	2.907493	1.740657
C	-0.120140	-1.971407	0.014457
H	0.955760	-1.877507	0.014557
H	-0.058740	-2.672507	-0.804743
H	-0.074940	-2.488407	0.961557
H	0.923160	2.675093	-1.147143
$end

$rem
JOBTYPE		SP
EXCHANGE	HF
CORRELATION	pRIMP2
BASIS		cc-pvtz
METHOD		rimp2
AUX_BASIS	rimp2-cc-pvtz
SOLVENT_METHOD	PCM
PURECART	11111
SYMMETRY	false
MEM_TOTAL	110000
SCF_CONVERGENCE = 6
THRESH=10
$end

$solvent
dielectric 4.90
$end
--------------------------------------------------------------

             Standard Nuclear Orientation (Angstroms)
    I     Atom           X                Y                Z
 ----------------------------------------------------------------
    1      C      -0.2457400000    -0.5362070000     0.0144570000
    2      C       0.0496600000     0.2752930000     1.1138570000
    3      C       0.5229600000     1.5756930000     0.7911570000
    4      H      -0.0764400000    -0.0712070000     2.1505570000
    5      C       0.5984600000     1.7830930000    -0.5980430000
    6      S       0.0765600000     0.3493930000    -1.4723430000
    7      C       0.8950600000     2.5978930000     1.8290570000
    8      H       0.7494600000     2.1978930000     2.8511570000
    9      H       0.2802600000     3.5178930000     1.7406570000
   10      H       1.9574600000     2.9074930000     1.7406570000
   11      C      -0.1201400000    -1.9714070000     0.0144570000
   12      H       0.9557600000    -1.8775070000     0.0145570000
   13      H      -0.0587400000    -2.6725070000    -0.8047430000
   14      H      -0.0749400000    -2.4884070000     0.9615570000
   15      H       0.9231600000     2.6750930000    -1.1471430000
 ----------------------------------------------------------------

   10    -629.4148678263      6.82e-07  Convergence criterion met
 Total energy in the final basis set =     -629.4148678263
        RIMP2         total energy =      -630.5925806451 a.u.

                    Orbital Energies (a.u.)
 --------------------------------------------------------------

 Alpha MOs
 -- Occupied --
-91.9770 -11.2838 -11.2516 -11.2478 -11.2269 -11.2250 -11.2221  -8.9771
 -6.6581  -6.6575  -6.6569  -1.1632  -1.0568  -0.9971  -0.9406  -0.8822
 -0.7447  -0.7201  -0.6469  -0.5888  -0.5793  -0.5684  -0.5523  -0.5459
 -0.5076  -0.4928  -0.4640  -0.4564  -0.3389  -0.2878

          Ground-State Mulliken Net Atomic Charges

     Atom                 Charge (a.u.)
  ----------------------------------------
      1 C                     0.055511
      2 C                    -0.315313
      3 C                     0.059243
      4 H                     0.175482
      5 C                    -0.278600
      6 S                    -0.000838
      7 C                    -0.270752
      8 H                     0.101552
      9 H                     0.107675
     10 H                     0.106815
     11 C                    -0.374854
     12 H                     0.150267
     13 H                     0.157098
     14 H                     0.134224
     15 H                     0.192491
  ----------------------------------------
  Sum of atomic charges =     0.000000

                    Cartesian Multipole Moments
 -----------------------------------------------------------------
    Charge (ESU x 10^10)
                -0.0000
    Dipole Moment (Debye)
         X       1.2781      Y      -0.5766      Z       1.4540
       Tot       2.0199
    Quadrupole Moments (Debye-Ang)
        XX     -53.6265     XY       1.1603     YY     -43.2222
        XZ       0.1444     YZ       0.3881     ZZ     -48.5564

 Total job time:  159.79s(wall), 156.61s(cpu)
        *  Thank you very much for using Q-Chem.  Have a nice day.  *
