 Q-Chem 5.4, Q-Chem, Inc., Pleasanton, CA (2021)
 Q-Chem 5.4.0 for Intel X86 EM64T Linux

User input:
--------------------------------------------------------------
$molecule
0 1
C	-0.056221	-0.573727	0.011118
C	0.019079	0.286573	1.110518
C	0.139679	1.665273	0.787818
H	-0.013021	-0.080827	2.147218
C	0.158979	1.885073	-0.601382
S	0.025979	0.365073	-1.475682
C	0.234579	2.748873	1.825718
H	0.197479	2.324773	2.847818
H	-0.597421	3.478373	1.737318
H	1.180579	3.322873	1.737318
C	-0.056221	-2.014427	0.011118
H	-0.596321	-2.014627	0.946318
H	0.653179	-2.718227	0.420718
H	-0.876421	-2.533327	-0.462482
H	0.241679	2.830673	-1.150482
$end

$rem
JOBTYPE		SP
EXCHANGE	HF
CORRELATION	pRIMP2
BASIS		cc-pvtz
METHOD		rimp2
AUX_BASIS	rimp2-cc-pvtz
SOLVENT_METHOD	PCM
PURECART	11111
SYMMETRY	false
MEM_TOTAL	110000
SCF_CONVERGENCE = 6
THRESH=10
$end

$solvent
dielectric 4.90
$end
--------------------------------------------------------------

             Standard Nuclear Orientation (Angstroms)
    I     Atom           X                Y                Z
 ----------------------------------------------------------------
    1      C      -0.0562210000    -0.5737270000     0.0111180000
    2      C       0.0190790000     0.2865730000     1.1105180000
    3      C       0.1396790000     1.6652730000     0.7878180000
    4      H      -0.0130210000    -0.0808270000     2.1472180000
    5      C       0.1589790000     1.8850730000    -0.6013820000
    6      S       0.0259790000     0.3650730000    -1.4756820000
    7      C       0.2345790000     2.7488730000     1.8257180000
    8      H       0.1974790000     2.3247730000     2.8478180000
    9      H      -0.5974210000     3.4783730000     1.7373180000
   10      H       1.1805790000     3.3228730000     1.7373180000
   11      C      -0.0562210000    -2.0144270000     0.0111180000
   12      H      -0.5963210000    -2.0146270000     0.9463180000
   13      H       0.6531790000    -2.7182270000     0.4207180000
   14      H      -0.8764210000    -2.5333270000    -0.4624820000
   15      H       0.2416790000     2.8306730000    -1.1504820000
 ----------------------------------------------------------------

   10    -629.4239723424      5.24e-07  Convergence criterion met
 Total energy in the final basis set =     -629.4239723424
        RIMP2         total energy =      -630.6017003558 a.u.

                    Orbital Energies (a.u.)
 --------------------------------------------------------------

 Alpha MOs
 -- Occupied --
-91.9759 -11.2789 -11.2554 -11.2471 -11.2317 -11.2272 -11.2172  -8.9759
 -6.6569  -6.6563  -6.6558  -1.1606  -1.0542  -0.9992  -0.9402  -0.8842
 -0.7424  -0.7228  -0.6494  -0.5898  -0.5762  -0.5655  -0.5603  -0.5426
 -0.5099  -0.4874  -0.4668  -0.4424  -0.3376  -0.2999

          Ground-State Mulliken Net Atomic Charges

     Atom                 Charge (a.u.)
  ----------------------------------------
      1 C                     0.063192
      2 C                    -0.273507
      3 C                     0.033863
      4 H                     0.177896
      5 C                    -0.257450
      6 S                    -0.006819
      7 C                    -0.274335
      8 H                     0.101162
      9 H                     0.107078
     10 H                     0.107347
     11 C                    -0.375801
     12 H                     0.125154
     13 H                     0.143065
     14 H                     0.136146
     15 H                     0.193007
  ----------------------------------------
  Sum of atomic charges =     0.000000

                    Cartesian Multipole Moments
 -----------------------------------------------------------------
    Charge (ESU x 10^10)
                -0.0000
    Dipole Moment (Debye)
         X      -0.2273      Y      -0.2006      Z       2.0524
       Tot       2.0746
    Quadrupole Moments (Debye-Ang)
        XX     -53.7595     XY       1.4754     YY     -42.1951
        XZ       0.2651     YZ      -0.9888     ZZ     -48.8286

 Total job time:  163.97s(wall), 159.60s(cpu)
        *  Thank you very much for using Q-Chem.  Have a nice day.  *
