 Q-Chem 5.4, Q-Chem, Inc., Pleasanton, CA (2021)
 Q-Chem 5.4.0 for Intel X86 EM64T Linux

User input:
--------------------------------------------------------------
$molecule
0 1
C	-0.013746	-0.577121	0.014457
C	-0.013746	0.286479	1.113857
C	-0.013646	1.670379	0.791157
H	-0.013746	-0.082321	2.150557
C	-0.013646	1.891079	-0.598043
S	-0.013746	0.365279	-1.472343
C	-0.013646	2.758179	1.829057
H	-0.013646	2.332479	2.851157
H	-0.906046	3.412479	1.740657
H	0.878754	3.412379	1.740657
C	0.111854	-2.012321	0.014457
H	1.187754	-1.918421	0.014557
H	0.173254	-2.713421	-0.804743
H	0.157054	-2.529321	0.961557
H	-0.013646	2.840279	-1.147143
$end

$rem
JOBTYPE		SP
EXCHANGE	HF
CORRELATION	pRIMP2
BASIS		cc-pvtz
METHOD		rimp2
AUX_BASIS	rimp2-cc-pvtz
SOLVENT_METHOD	PCM
PURECART	11111
SYMMETRY	false
MEM_TOTAL	110000
SCF_CONVERGENCE = 6
THRESH=10
$end

$solvent
dielectric 4.90
$end
--------------------------------------------------------------

             Standard Nuclear Orientation (Angstroms)
    I     Atom           X                Y                Z
 ----------------------------------------------------------------
    1      C      -0.0137460000    -0.5771210000     0.0144570000
    2      C      -0.0137460000     0.2864790000     1.1138570000
    3      C      -0.0136460000     1.6703790000     0.7911570000
    4      H      -0.0137460000    -0.0823210000     2.1505570000
    5      C      -0.0136460000     1.8910790000    -0.5980430000
    6      S      -0.0137460000     0.3652790000    -1.4723430000
    7      C      -0.0136460000     2.7581790000     1.8290570000
    8      H      -0.0136460000     2.3324790000     2.8511570000
    9      H      -0.9060460000     3.4124790000     1.7406570000
   10      H       0.8787540000     3.4123790000     1.7406570000
   11      C       0.1118540000    -2.0123210000     0.0144570000
   12      H       1.1877540000    -1.9184210000     0.0145570000
   13      H       0.1732540000    -2.7134210000    -0.8047430000
   14      H       0.1570540000    -2.5293210000     0.9615570000
   15      H      -0.0136460000     2.8402790000    -1.1471430000
 ----------------------------------------------------------------

   10    -629.4253474293      7.06e-07  Convergence criterion met
 Total energy in the final basis set =     -629.4253474293
        RIMP2         total energy =      -630.6003703110 a.u.

                    Orbital Energies (a.u.)
 --------------------------------------------------------------

 Alpha MOs
 -- Occupied --
-91.9777 -11.2869 -11.2482 -11.2469 -11.2264 -11.2230 -11.2229  -8.9776
 -6.6586  -6.6580  -6.6574  -1.1604  -1.0565  -0.9975  -0.9417  -0.8827
 -0.7438  -0.7186  -0.6479  -0.5896  -0.5758  -0.5699  -0.5525  -0.5459
 -0.5075  -0.4934  -0.4663  -0.4565  -0.3386  -0.2882

          Ground-State Mulliken Net Atomic Charges

     Atom                 Charge (a.u.)
  ----------------------------------------
      1 C                     0.068832
      2 C                    -0.313860
      3 C                     0.051454
      4 H                     0.176234
      5 C                    -0.281623
      6 S                    -0.001981
      7 C                    -0.274279
      8 H                     0.101289
      9 H                     0.107275
     10 H                     0.107490
     11 C                    -0.383654
     12 H                     0.146385
     13 H                     0.162761
     14 H                     0.141261
     15 H                     0.192416
  ----------------------------------------
  Sum of atomic charges =     0.000000

                    Cartesian Multipole Moments
 -----------------------------------------------------------------
    Charge (ESU x 10^10)
                -0.0000
    Dipole Moment (Debye)
         X       0.9033      Y      -0.7308      Z       1.4055
       Tot       1.8236
    Quadrupole Moments (Debye-Ang)
        XX     -54.1999     XY      -1.8738     YY     -41.9486
        XZ       0.0224     YZ       0.5007     ZZ     -48.6181

 Total job time:  159.44s(wall), 157.42s(cpu)
        *  Thank you very much for using Q-Chem.  Have a nice day.  *
