 Q-Chem 5.4, Q-Chem, Inc., Pleasanton, CA (2021)
 Q-Chem 5.4.0 for Intel X86 EM64T Linux

User input:
--------------------------------------------------------------
$molecule
0 1
C	-0.232587	-0.535395	0.019884
C	0.062813	0.276105	1.119284
C	0.536113	1.576505	0.796584
H	-0.063287	-0.070395	2.155984
C	0.611613	1.783905	-0.592616
S	0.089713	0.350205	-1.466916
C	0.908213	2.598705	1.834484
H	0.762613	2.198705	2.856584
H	0.293413	3.518705	1.746084
H	1.970613	2.908305	1.746084
C	-0.232587	-1.976095	0.019884
H	-0.232487	-1.976295	-1.060116
H	-1.051787	-2.679895	0.019784
H	0.714513	-2.494995	0.019884
H	0.936313	2.675905	-1.141716
$end

$rem
JOBTYPE		SP
EXCHANGE	HF
CORRELATION	pRIMP2
BASIS		cc-pvtz
METHOD		rimp2
AUX_BASIS	rimp2-cc-pvtz
SOLVENT_METHOD	PCM
PURECART	11111
SYMMETRY	false
MEM_TOTAL	110000
SCF_CONVERGENCE = 6
THRESH=10
$end

$solvent
dielectric 4.90
$end
--------------------------------------------------------------

   10    -629.4129198696      5.31e-07  Convergence criterion met
 Total energy in the final basis set =     -629.4129198696
        RIMP2         total energy =      -630.5925053920 a.u.
 Total job time:  157.82s(wall), 156.28s(cpu)
        *  Thank you very much for using Q-Chem.  Have a nice day.  *
 Q-Chem 5.4, Q-Chem, Inc., Pleasanton, CA (2021)
 Q-Chem 5.4.0 for Intel X86 EM64T Linux

User input:
--------------------------------------------------------------
$molecule
0 1
C	-0.232587	-0.535395	0.019884
C	0.062813	0.276105	1.119284
C	0.536113	1.576505	0.796584
H	-0.063287	-0.070395	2.155984
C	0.611613	1.783905	-0.592616
S	0.089713	0.350205	-1.466916
C	0.908213	2.598705	1.834484
H	0.762613	2.198705	2.856584
H	0.293413	3.518705	1.746084
H	1.970613	2.908305	1.746084
C	-0.232587	-1.976095	0.019884
H	-0.232487	-1.976295	-1.060116
H	-1.051787	-2.679895	0.019784
H	0.714513	-2.494995	0.019884
H	0.936313	2.675905	-1.141716
$end

$rem
JOBTYPE		SP
EXCHANGE	HF
CORRELATION	pRIMP2
BASIS		cc-pvtz
METHOD		rimp2
AUX_BASIS	rimp2-cc-pvtz
SOLVENT_METHOD	PCM
PURECART	11111
SYMMETRY	false
MEM_TOTAL	110000
SCF_CONVERGENCE = 6
THRESH=10
$end

$solvent
dielectric 4.90
$end
--------------------------------------------------------------

             Standard Nuclear Orientation (Angstroms)
    I     Atom           X                Y                Z
 ----------------------------------------------------------------
    1      C      -0.2325870000    -0.5353950000     0.0198840000
    2      C       0.0628130000     0.2761050000     1.1192840000
    3      C       0.5361130000     1.5765050000     0.7965840000
    4      H      -0.0632870000    -0.0703950000     2.1559840000
    5      C       0.6116130000     1.7839050000    -0.5926160000
    6      S       0.0897130000     0.3502050000    -1.4669160000
    7      C       0.9082130000     2.5987050000     1.8344840000
    8      H       0.7626130000     2.1987050000     2.8565840000
    9      H       0.2934130000     3.5187050000     1.7460840000
   10      H       1.9706130000     2.9083050000     1.7460840000
   11      C      -0.2325870000    -1.9760950000     0.0198840000
   12      H      -0.2324870000    -1.9762950000    -1.0601160000
   13      H      -1.0517870000    -2.6798950000     0.0197840000
   14      H       0.7145130000    -2.4949950000     0.0198840000
   15      H       0.9363130000     2.6759050000    -1.1417160000
 ----------------------------------------------------------------

   10    -629.4129198696      5.31e-07  Convergence criterion met
 Total energy in the final basis set =     -629.4129198696
        RIMP2         total energy =      -630.5925053920 a.u.

                    Orbital Energies (a.u.)
 --------------------------------------------------------------

 Alpha MOs
 -- Occupied --
-91.9801 -11.2718 -11.2601 -11.2472 -11.2310 -11.2270 -11.2149  -8.9800
 -6.6609  -6.6604  -6.6598  -1.1621  -1.0552  -0.9950  -0.9461  -0.8812
 -0.7486  -0.7193  -0.6472  -0.5917  -0.5757  -0.5658  -0.5533  -0.5475
 -0.5100  -0.4829  -0.4649  -0.4430  -0.3378  -0.3042

          Ground-State Mulliken Net Atomic Charges

     Atom                 Charge (a.u.)
  ----------------------------------------
      1 C                     0.037723
      2 C                    -0.263971
      3 C                     0.044956
      4 H                     0.178955
      5 C                    -0.255954
      6 S                    -0.002447
      7 C                    -0.272178
      8 H                     0.101986
      9 H                     0.106878
     10 H                     0.106489
     11 C                    -0.364212
     12 H                     0.112463
     13 H                     0.145924
     14 H                     0.127961
     15 H                     0.195427
  ----------------------------------------
  Sum of atomic charges =     0.000000

                    Cartesian Multipole Moments
 -----------------------------------------------------------------
    Charge (ESU x 10^10)
                -0.0000
    Dipole Moment (Debye)
         X       0.5895      Y       0.0912      Z       0.8842
       Tot       1.0666
    Quadrupole Moments (Debye-Ang)
        XX     -52.7483     XY       2.9706     YY     -43.3952
        XZ       0.1797     YZ       1.4048     ZZ     -48.7573

 Total job time:  156.25s(wall), 155.20s(cpu)
        *  Thank you very much for using Q-Chem.  Have a nice day.  *
