 Q-Chem 5.4, Q-Chem, Inc., Pleasanton, CA (2021)
 Q-Chem 5.4.0 for Intel X86 EM64T Linux

User input:
--------------------------------------------------------------
$molecule
0 1
C	-0.516720	-0.333974	0.018946
C	0.144880	0.221126	1.118346
C	1.204980	1.110626	0.795646
H	-0.137620	-0.015974	2.155046
C	1.374080	1.252426	-0.593554
S	0.205180	0.271726	-1.467854
C	2.038280	1.809826	1.833546
H	1.712180	1.536226	2.855646
H	1.965880	2.914026	1.745146
H	3.113080	1.546726	1.745146
C	-0.516720	-1.774674	0.018946
H	-1.056620	-1.774374	-0.916454
H	0.192780	-2.478474	-0.390554
H	-1.336920	-2.293574	0.492546
H	2.101180	1.862626	-1.142654
$end

$rem
JOBTYPE		SP
EXCHANGE	HF
CORRELATION	pRIMP2
BASIS		cc-pvtz
METHOD		rimp2
AUX_BASIS	rimp2-cc-pvtz
SOLVENT_METHOD	PCM
PURECART	11111
SYMMETRY	false
MEM_TOTAL	110000
SCF_CONVERGENCE = 6
THRESH=10
$end

$solvent
dielectric 4.90
$end
--------------------------------------------------------------

             Standard Nuclear Orientation (Angstroms)
    I     Atom           X                Y                Z
 ----------------------------------------------------------------
    1      C      -0.5167200000    -0.3339740000     0.0189460000
    2      C       0.1448800000     0.2211260000     1.1183460000
    3      C       1.2049800000     1.1106260000     0.7956460000
    4      H      -0.1376200000    -0.0159740000     2.1550460000
    5      C       1.3740800000     1.2524260000    -0.5935540000
    6      S       0.2051800000     0.2717260000    -1.4678540000
    7      C       2.0382800000     1.8098260000     1.8335460000
    8      H       1.7121800000     1.5362260000     2.8556460000
    9      H       1.9658800000     2.9140260000     1.7451460000
   10      H       3.1130800000     1.5467260000     1.7451460000
   11      C      -0.5167200000    -1.7746740000     0.0189460000
   12      H      -1.0566200000    -1.7743740000    -0.9164540000
   13      H       0.1927800000    -2.4784740000    -0.3905540000
   14      H      -1.3369200000    -2.2935740000     0.4925460000
   15      H       2.1011800000     1.8626260000    -1.1426540000
 ----------------------------------------------------------------

   10    -629.3681450107      9.55e-07  Convergence criterion met
 Total energy in the final basis set =     -629.3681450107
        RIMP2         total energy =      -630.5558945542 a.u.

                    Orbital Energies (a.u.)
 --------------------------------------------------------------

 Alpha MOs
 -- Occupied --
-91.9774 -11.2767 -11.2494 -11.2484 -11.2448 -11.2281 -11.2085  -8.9778
 -6.6587  -6.6580  -6.6576  -1.1686  -1.0548  -0.9955  -0.9440  -0.8806
 -0.7521  -0.7255  -0.6432  -0.5884  -0.5779  -0.5722  -0.5507  -0.5457
 -0.5179  -0.4719  -0.4522  -0.4405  -0.3353  -0.3016

          Ground-State Mulliken Net Atomic Charges

     Atom                 Charge (a.u.)
  ----------------------------------------
      1 C                    -0.081262
      2 C                    -0.153786
      3 C                     0.002067
      4 H                     0.182237
      5 C                    -0.201799
      6 S                     0.008319
      7 C                    -0.269065
      8 H                     0.102021
      9 H                     0.106583
     10 H                     0.104551
     11 C                    -0.367331
     12 H                     0.106757
     13 H                     0.144062
     14 H                     0.119327
     15 H                     0.197319
  ----------------------------------------
  Sum of atomic charges =     0.000000

                    Cartesian Multipole Moments
 -----------------------------------------------------------------
    Charge (ESU x 10^10)
                -0.0000
    Dipole Moment (Debye)
         X       1.6699      Y       0.4002      Z       1.2132
       Tot       2.1025
    Quadrupole Moments (Debye-Ang)
        XX     -48.9347     XY       5.1160     YY     -48.3129
        XZ      -0.3030     YZ       0.8182     ZZ     -48.1557

 Total job time:  159.47s(wall), 157.72s(cpu)
        *  Thank you very much for using Q-Chem.  Have a nice day.  *
