 Q-Chem 5.4, Q-Chem, Inc., Pleasanton, CA (2021)
 Q-Chem 5.4.0 for Intel X86 EM64T Linux

User input:
--------------------------------------------------------------
$molecule
0 1
C	-0.335090	-0.485419	0.012353
C	0.096710	0.262481	1.111753
C	0.788710	1.460981	0.789053
H	-0.087690	-0.056919	2.148453
C	0.899010	1.652081	-0.600147
S	0.136110	0.330681	-1.474447
C	1.332610	2.402981	1.826953
H	1.119810	2.034381	2.849053
H	0.886910	3.415781	1.738553
H	2.432610	2.523381	1.738553
C	-0.335090	-1.926119	0.012353
H	-1.162490	-1.926319	0.706453
H	0.191410	-2.629919	0.639953
H	-0.943890	-2.445019	-0.713147
H	1.373710	2.474081	-1.149247
$end

$rem
JOBTYPE		SP
EXCHANGE	HF
CORRELATION	pRIMP2
BASIS		cc-pvtz
METHOD		rimp2
AUX_BASIS	rimp2-cc-pvtz
SOLVENT_METHOD	PCM
PURECART	11111
SYMMETRY	false
MEM_TOTAL	110000
SCF_CONVERGENCE = 6
THRESH=10
$end

$solvent
dielectric 4.90
$end
--------------------------------------------------------------

   10    -629.4037306140      5.49e-07  Convergence criterion met
 Total energy in the final basis set =     -629.4037306140
        RIMP2         total energy =      -630.5858360163 a.u.
 Total job time:  157.16s(wall), 155.09s(cpu)
        *  Thank you very much for using Q-Chem.  Have a nice day.  *
 Q-Chem 5.4, Q-Chem, Inc., Pleasanton, CA (2021)
 Q-Chem 5.4.0 for Intel X86 EM64T Linux

User input:
--------------------------------------------------------------
$molecule
0 1
C	-0.335090	-0.485419	0.012353
C	0.096710	0.262481	1.111753
C	0.788710	1.460981	0.789053
H	-0.087690	-0.056919	2.148453
C	0.899010	1.652081	-0.600147
S	0.136110	0.330681	-1.474447
C	1.332610	2.402981	1.826953
H	1.119810	2.034381	2.849053
H	0.886910	3.415781	1.738553
H	2.432610	2.523381	1.738553
C	-0.335090	-1.926119	0.012353
H	-1.162490	-1.926319	0.706453
H	0.191410	-2.629919	0.639953
H	-0.943890	-2.445019	-0.713147
H	1.373710	2.474081	-1.149247
$end

$rem
JOBTYPE		SP
EXCHANGE	HF
CORRELATION	pRIMP2
BASIS		cc-pvtz
METHOD		rimp2
AUX_BASIS	rimp2-cc-pvtz
SOLVENT_METHOD	PCM
PURECART	11111
SYMMETRY	false
MEM_TOTAL	110000
SCF_CONVERGENCE = 6
THRESH=10
$end

$solvent
dielectric 4.90
$end
--------------------------------------------------------------

             Standard Nuclear Orientation (Angstroms)
    I     Atom           X                Y                Z
 ----------------------------------------------------------------
    1      C      -0.3350900000    -0.4854190000     0.0123530000
    2      C       0.0967100000     0.2624810000     1.1117530000
    3      C       0.7887100000     1.4609810000     0.7890530000
    4      H      -0.0876900000    -0.0569190000     2.1484530000
    5      C       0.8990100000     1.6520810000    -0.6001470000
    6      S       0.1361100000     0.3306810000    -1.4744470000
    7      C       1.3326100000     2.4029810000     1.8269530000
    8      H       1.1198100000     2.0343810000     2.8490530000
    9      H       0.8869100000     3.4157810000     1.7385530000
   10      H       2.4326100000     2.5233810000     1.7385530000
   11      C      -0.3350900000    -1.9261190000     0.0123530000
   12      H      -1.1624900000    -1.9263190000     0.7064530000
   13      H       0.1914100000    -2.6299190000     0.6399530000
   14      H      -0.9438900000    -2.4450190000    -0.7131470000
   15      H       1.3737100000     2.4740810000    -1.1492470000
 ----------------------------------------------------------------

   10    -629.4037306140      5.49e-07  Convergence criterion met
 Total energy in the final basis set =     -629.4037306140
        RIMP2         total energy =      -630.5858360163 a.u.

                    Orbital Energies (a.u.)
 --------------------------------------------------------------

 Alpha MOs
 -- Occupied --
-91.9746 -11.2715 -11.2596 -11.2478 -11.2346 -11.2274 -11.2146  -8.9748
 -6.6558  -6.6551  -6.6546  -1.1622  -1.0538  -0.9980  -0.9401  -0.8837
 -0.7436  -0.7232  -0.6476  -0.5855  -0.5770  -0.5646  -0.5589  -0.5430
 -0.5131  -0.4893  -0.4616  -0.4405  -0.3374  -0.2942

          Ground-State Mulliken Net Atomic Charges

     Atom                 Charge (a.u.)
  ----------------------------------------
      1 C                     0.016993
      2 C                    -0.269283
      3 C                     0.037806
      4 H                     0.177619
      5 C                    -0.245248
      6 S                     0.000593
      7 C                    -0.271510
      8 H                     0.101327
      9 H                     0.106952
     10 H                     0.106685
     11 C                    -0.374572
     12 H                     0.128700
     13 H                     0.158622
     14 H                     0.132957
     15 H                     0.192359
  ----------------------------------------
  Sum of atomic charges =     0.000000

                    Cartesian Multipole Moments
 -----------------------------------------------------------------
    Charge (ESU x 10^10)
                -0.0000
    Dipole Moment (Debye)
         X       0.2953      Y      -0.1306      Z       1.9682
       Tot       1.9945
    Quadrupole Moments (Debye-Ang)
        XX     -51.7139     XY       4.9296     YY     -44.6379
        XZ       0.2689     YZ      -0.7507     ZZ     -48.5338

 Total job time:  155.83s(wall), 155.11s(cpu)
        *  Thank you very much for using Q-Chem.  Have a nice day.  *
