 Q-Chem 5.4, Q-Chem, Inc., Pleasanton, CA (2021)
 Q-Chem 5.4.0 for Intel X86 EM64T Linux

User input:
--------------------------------------------------------------
$molecule
0 1
C	-0.519920	-0.333974	0.019910
C	0.141680	0.221126	1.119310
C	1.201780	1.110626	0.796610
H	-0.140820	-0.015974	2.156010
C	1.370880	1.252426	-0.592590
S	0.201980	0.271726	-1.466890
C	2.035080	1.809826	1.834510
H	1.708980	1.536226	2.856610
H	1.962680	2.914026	1.746110
H	3.109880	1.546726	1.746110
C	-0.519920	-1.774674	0.019910
H	-0.332220	-1.774374	-1.043690
H	0.286780	-2.478474	0.162210
H	-1.452620	-2.293574	-0.144590
H	2.097980	1.862626	-1.141690
$end

$rem
JOBTYPE		SP
EXCHANGE	HF
CORRELATION	pRIMP2
BASIS		cc-pvtz
METHOD		rimp2
AUX_BASIS	rimp2-cc-pvtz
SOLVENT_METHOD	PCM
PURECART	11111
SYMMETRY	false
MEM_TOTAL	110000
SCF_CONVERGENCE = 6
THRESH=10
$end

$solvent
dielectric 4.90
$end
--------------------------------------------------------------

             Standard Nuclear Orientation (Angstroms)
    I     Atom           X                Y                Z
 ----------------------------------------------------------------
    1      C      -0.5199200000    -0.3339740000     0.0199100000
    2      C       0.1416800000     0.2211260000     1.1193100000
    3      C       1.2017800000     1.1106260000     0.7966100000
    4      H      -0.1408200000    -0.0159740000     2.1560100000
    5      C       1.3708800000     1.2524260000    -0.5925900000
    6      S       0.2019800000     0.2717260000    -1.4668900000
    7      C       2.0350800000     1.8098260000     1.8345100000
    8      H       1.7089800000     1.5362260000     2.8566100000
    9      H       1.9626800000     2.9140260000     1.7461100000
   10      H       3.1098800000     1.5467260000     1.7461100000
   11      C      -0.5199200000    -1.7746740000     0.0199100000
   12      H      -0.3322200000    -1.7743740000    -1.0436900000
   13      H       0.2867800000    -2.4784740000     0.1622100000
   14      H      -1.4526200000    -2.2935740000    -0.1445900000
   15      H       2.0979800000     1.8626260000    -1.1416900000
 ----------------------------------------------------------------

   10    -629.3628612213      8.06e-07  Convergence criterion met
 Total energy in the final basis set =     -629.3628612213
        RIMP2         total energy =      -630.5511794021 a.u.

                    Orbital Energies (a.u.)
 --------------------------------------------------------------

 Alpha MOs
 -- Occupied --
-91.9742 -11.2760 -11.2512 -11.2476 -11.2464 -11.2281 -11.2066  -8.9754
 -6.6562  -6.6553  -6.6550  -1.1702  -1.0565  -0.9943  -0.9448  -0.8785
 -0.7538  -0.7251  -0.6451  -0.5867  -0.5805  -0.5687  -0.5510  -0.5474
 -0.5177  -0.4646  -0.4632  -0.4366  -0.3323  -0.3040

          Ground-State Mulliken Net Atomic Charges

     Atom                 Charge (a.u.)
  ----------------------------------------
      1 C                    -0.066308
      2 C                    -0.169225
      3 C                     0.009569
      4 H                     0.181632
      5 C                    -0.207685
      6 S                     0.001351
      7 C                    -0.269334
      8 H                     0.101950
      9 H                     0.106930
     10 H                     0.104476
     11 C                    -0.365214
     12 H                     0.122333
     13 H                     0.142839
     14 H                     0.109241
     15 H                     0.197445
  ----------------------------------------
  Sum of atomic charges =     0.000000

                    Cartesian Multipole Moments
 -----------------------------------------------------------------
    Charge (ESU x 10^10)
                -0.0000
    Dipole Moment (Debye)
         X       2.0319      Y       0.3290      Z       1.0772
       Tot       2.3232
    Quadrupole Moments (Debye-Ang)
        XX     -49.2688     XY       4.1195     YY     -48.5323
        XZ       0.1421     YZ       1.1907     ZZ     -48.1301

 Total job time:  160.10s(wall), 158.83s(cpu)
        *  Thank you very much for using Q-Chem.  Have a nice day.  *
