 Q-Chem 5.4, Q-Chem, Inc., Pleasanton, CA (2021)
 Q-Chem 5.4.0 for Intel X86 EM64T Linux

User input:
--------------------------------------------------------------
$molecule
0 1
C	-0.291185	-0.512744	0.016960
C	0.073815	0.269956	1.116360
C	0.658715	1.524156	0.793660
H	-0.082085	-0.064344	2.153060
C	0.752015	1.724156	-0.595540
S	0.107115	0.341356	-1.469840
C	1.118415	2.509956	1.831560
H	0.938515	2.124256	2.853660
H	0.586115	3.480156	1.743160
H	2.203715	2.725856	1.743160
C	-0.291185	-1.953444	0.016960
H	0.644215	-1.953644	-0.522940
H	-0.700685	-2.657244	-0.692540
H	0.182415	-2.472344	0.837160
H	1.153115	2.584456	-1.144640
$end

$rem
JOBTYPE		SP
EXCHANGE	HF
CORRELATION	pRIMP2
BASIS		cc-pvtz
METHOD		rimp2
AUX_BASIS	rimp2-cc-pvtz
SOLVENT_METHOD	PCM
PURECART	11111
SYMMETRY	false
MEM_TOTAL	110000
SCF_CONVERGENCE = 6
THRESH=10
$end

$solvent
dielectric 4.90
$end
--------------------------------------------------------------

             Standard Nuclear Orientation (Angstroms)
    I     Atom           X                Y                Z
 ----------------------------------------------------------------
    1      C      -0.2911850000    -0.5127440000     0.0169600000
    2      C       0.0738150000     0.2699560000     1.1163600000
    3      C       0.6587150000     1.5241560000     0.7936600000
    4      H      -0.0820850000    -0.0643440000     2.1530600000
    5      C       0.7520150000     1.7241560000    -0.5955400000
    6      S       0.1071150000     0.3413560000    -1.4698400000
    7      C       1.1184150000     2.5099560000     1.8315600000
    8      H       0.9385150000     2.1242560000     2.8536600000
    9      H       0.5861150000     3.4801560000     1.7431600000
   10      H       2.2037150000     2.7258560000     1.7431600000
   11      C      -0.2911850000    -1.9534440000     0.0169600000
   12      H       0.6442150000    -1.9536440000    -0.5229400000
   13      H      -0.7006850000    -2.6572440000    -0.6925400000
   14      H       0.1824150000    -2.4723440000     0.8371600000
   15      H       1.1531150000     2.5844560000    -1.1446400000
 ----------------------------------------------------------------

   10    -629.4135044495      6.76e-07  Convergence criterion met
 Total energy in the final basis set =     -629.4135044495
        RIMP2         total energy =      -630.5914574644 a.u.

                    Orbital Energies (a.u.)
 --------------------------------------------------------------

 Alpha MOs
 -- Occupied --
-91.9752 -11.2803 -11.2550 -11.2472 -11.2287 -11.2270 -11.2195  -8.9757
 -6.6566  -6.6560  -6.6554  -1.1633  -1.0566  -0.9957  -0.9429  -0.8813
 -0.7465  -0.7199  -0.6466  -0.5899  -0.5790  -0.5663  -0.5503  -0.5478
 -0.5079  -0.4932  -0.4632  -0.4518  -0.3398  -0.2913

          Ground-State Mulliken Net Atomic Charges

     Atom                 Charge (a.u.)
  ----------------------------------------
      1 C                     0.057862
      2 C                    -0.319990
      3 C                     0.060730
      4 H                     0.178922
      5 C                    -0.265993
      6 S                    -0.006386
      7 C                    -0.270672
      8 H                     0.101527
      9 H                     0.107681
     10 H                     0.106917
     11 C                    -0.372419
     12 H                     0.140667
     13 H                     0.150605
     14 H                     0.137894
     15 H                     0.192658
  ----------------------------------------
  Sum of atomic charges =     0.000000

                    Cartesian Multipole Moments
 -----------------------------------------------------------------
    Charge (ESU x 10^10)
                -0.0000
    Dipole Moment (Debye)
         X       1.1916      Y      -0.4610      Z       1.1807
       Tot       1.7397
    Quadrupole Moments (Debye-Ang)
        XX     -53.1127     XY       2.2554     YY     -43.6557
        XZ       0.4247     YZ       1.0634     ZZ     -48.6143

 Total job time:  157.46s(wall), 155.97s(cpu)
        *  Thank you very much for using Q-Chem.  Have a nice day.  *
