 Q-Chem 5.4, Q-Chem, Inc., Pleasanton, CA (2021)
 Q-Chem 5.4.0 for Intel X86 EM64T Linux

User input:
--------------------------------------------------------------
$molecule
0 1
C	-0.054467	-0.573729	0.013624
C	0.020833	0.286571	1.113024
C	0.141433	1.665271	0.790324
H	-0.011267	-0.080829	2.149724
C	0.160733	1.885071	-0.598876
S	0.027733	0.365071	-1.473176
C	0.236333	2.748871	1.828224
H	0.199233	2.324771	2.850324
H	-0.595667	3.478371	1.739824
H	1.182333	3.322871	1.739824
C	-0.054467	-2.014429	0.013624
H	-1.118067	-2.014129	0.201024
H	-0.196667	-2.718229	-0.793176
H	0.110033	-2.533329	0.946324
H	0.243433	2.830671	-1.147976
$end

$rem
JOBTYPE		SP
EXCHANGE	HF
CORRELATION	pRIMP2
BASIS		cc-pvtz
METHOD		rimp2
AUX_BASIS	rimp2-cc-pvtz
SOLVENT_METHOD	PCM
PURECART	11111
SYMMETRY	false
MEM_TOTAL	110000
SCF_CONVERGENCE = 6
THRESH=10
$end

$solvent
dielectric 4.90
$end
--------------------------------------------------------------

             Standard Nuclear Orientation (Angstroms)
    I     Atom           X                Y                Z
 ----------------------------------------------------------------
    1      C      -0.0544670000    -0.5737290000     0.0136240000
    2      C       0.0208330000     0.2865710000     1.1130240000
    3      C       0.1414330000     1.6652710000     0.7903240000
    4      H      -0.0112670000    -0.0808290000     2.1497240000
    5      C       0.1607330000     1.8850710000    -0.5988760000
    6      S       0.0277330000     0.3650710000    -1.4731760000
    7      C       0.2363330000     2.7488710000     1.8282240000
    8      H       0.1992330000     2.3247710000     2.8503240000
    9      H      -0.5956670000     3.4783710000     1.7398240000
   10      H       1.1823330000     3.3228710000     1.7398240000
   11      C      -0.0544670000    -2.0144290000     0.0136240000
   12      H      -1.1180670000    -2.0141290000     0.2010240000
   13      H      -0.1966670000    -2.7182290000    -0.7931760000
   14      H       0.1100330000    -2.5333290000     0.9463240000
   15      H       0.2434330000     2.8306710000    -1.1479760000
 ----------------------------------------------------------------

   10    -629.4234929094      6.89e-07  Convergence criterion met
 Total energy in the final basis set =     -629.4234929094
        RIMP2         total energy =      -630.5992374019 a.u.

                    Orbital Energies (a.u.)
 --------------------------------------------------------------

 Alpha MOs
 -- Occupied --
-91.9776 -11.2860 -11.2483 -11.2469 -11.2264 -11.2236 -11.2219  -8.9774
 -6.6584  -6.6578  -6.6572  -1.1600  -1.0561  -0.9978  -0.9414  -0.8830
 -0.7432  -0.7189  -0.6477  -0.5895  -0.5736  -0.5714  -0.5541  -0.5451
 -0.5083  -0.4933  -0.4642  -0.4556  -0.3380  -0.2883

          Ground-State Mulliken Net Atomic Charges

     Atom                 Charge (a.u.)
  ----------------------------------------
      1 C                     0.072198
      2 C                    -0.312707
      3 C                     0.050245
      4 H                     0.175463
      5 C                    -0.280447
      6 S                    -0.000041
      7 C                    -0.274887
      8 H                     0.101225
      9 H                     0.107390
     10 H                     0.107372
     11 C                    -0.386852
     12 H                     0.143137
     13 H                     0.163735
     14 H                     0.142208
     15 H                     0.191961
  ----------------------------------------
  Sum of atomic charges =     0.000000

                    Cartesian Multipole Moments
 -----------------------------------------------------------------
    Charge (ESU x 10^10)
                -0.0000
    Dipole Moment (Debye)
         X      -0.6461      Y      -0.7750      Z       1.5347
       Tot       1.8367
    Quadrupole Moments (Debye-Ang)
        XX     -54.2392     XY       2.3549     YY     -41.7940
        XZ       0.1091     YZ       0.2483     ZZ     -48.5979

 Total job time:  161.98s(wall), 159.94s(cpu)
        *  Thank you very much for using Q-Chem.  Have a nice day.  *
