 Q-Chem 5.4, Q-Chem, Inc., Pleasanton, CA (2021)
 Q-Chem 5.4.0 for Intel X86 EM64T Linux

User input:
--------------------------------------------------------------
$molecule
0 1
C	-0.174999	-0.553189	0.010180
C	0.048501	0.281011	1.109580
C	0.406701	1.617711	0.786880
H	-0.046899	-0.075289	2.146280
C	0.463901	1.830811	-0.602320
S	0.068901	0.357111	-1.476620
C	0.688301	2.668411	1.824780
H	0.578101	2.257311	2.846880
H	-0.004299	3.531411	1.736380
H	1.719601	3.069411	1.736380
C	-0.174999	-1.993889	0.010180
H	-0.175099	-1.994089	1.090180
H	0.644201	-2.697689	0.010280
H	-1.122099	-2.512789	0.010180
H	0.709601	2.747711	-1.151420
$end

$rem
JOBTYPE		SP
EXCHANGE	HF
CORRELATION	pRIMP2
BASIS		cc-pvtz
METHOD		rimp2
AUX_BASIS	rimp2-cc-pvtz
SOLVENT_METHOD	PCM
PURECART	11111
SYMMETRY	false
MEM_TOTAL	110000
SCF_CONVERGENCE = 6
THRESH=10
$end

$solvent
dielectric 4.90
$end
--------------------------------------------------------------

             Standard Nuclear Orientation (Angstroms)
    I     Atom           X                Y                Z
 ----------------------------------------------------------------
    1      C      -0.1749990000    -0.5531890000     0.0101800000
    2      C       0.0485010000     0.2810110000     1.1095800000
    3      C       0.4067010000     1.6177110000     0.7868800000
    4      H      -0.0468990000    -0.0752890000     2.1462800000
    5      C       0.4639010000     1.8308110000    -0.6023200000
    6      S       0.0689010000     0.3571110000    -1.4766200000
    7      C       0.6883010000     2.6684110000     1.8247800000
    8      H       0.5781010000     2.2573110000     2.8468800000
    9      H      -0.0042990000     3.5314110000     1.7363800000
   10      H       1.7196010000     3.0694110000     1.7363800000
   11      C      -0.1749990000    -1.9938890000     0.0101800000
   12      H      -0.1750990000    -1.9940890000     1.0901800000
   13      H       0.6442010000    -2.6976890000     0.0102800000
   14      H      -1.1220990000    -2.5127890000     0.0101800000
   15      H       0.7096010000     2.7477110000    -1.1514200000
 ----------------------------------------------------------------

   10    -629.4198431882      4.90e-07  Convergence criterion met
 Total energy in the final basis set =     -629.4198431882
        RIMP2         total energy =      -630.5988789562 a.u.

                    Orbital Energies (a.u.)
 --------------------------------------------------------------

 Alpha MOs
 -- Occupied --
-91.9746 -11.2753 -11.2591 -11.2471 -11.2357 -11.2276 -11.2153  -8.9748
 -6.6558  -6.6552  -6.6547  -1.1616  -1.0538  -0.9997  -0.9393  -0.8845
 -0.7425  -0.7249  -0.6485  -0.5905  -0.5784  -0.5677  -0.5584  -0.5418
 -0.5117  -0.4823  -0.4678  -0.4363  -0.3378  -0.3046

          Ground-State Mulliken Net Atomic Charges

     Atom                 Charge (a.u.)
  ----------------------------------------
      1 C                     0.048763
      2 C                    -0.268706
      3 C                     0.034945
      4 H                     0.177138
      5 C                    -0.248752
      6 S                    -0.006569
      7 C                    -0.272624
      8 H                     0.101156
      9 H                     0.107022
     10 H                     0.107225
     11 C                    -0.362890
     12 H                     0.118834
     13 H                     0.144662
     14 H                     0.126492
     15 H                     0.193303
  ----------------------------------------
  Sum of atomic charges =     0.000000

                    Cartesian Multipole Moments
 -----------------------------------------------------------------
    Charge (ESU x 10^10)
                -0.0000
    Dipole Moment (Debye)
         X       0.3987      Y       0.0054      Z       2.1627
       Tot       2.1992
    Quadrupole Moments (Debye-Ang)
        XX     -53.1413     XY       2.0898     YY     -42.8702
        XZ      -0.0554     YZ      -1.1032     ZZ     -48.9222

 Total job time:  156.14s(wall), 155.00s(cpu)
        *  Thank you very much for using Q-Chem.  Have a nice day.  *
