 Q-Chem 5.4, Q-Chem, Inc., Pleasanton, CA (2021)
 Q-Chem 5.4.0 for Intel X86 EM64T Linux

User input:
--------------------------------------------------------------
$molecule
0 1
C	-0.063824	-0.573727	0.013623
C	0.011476	0.286573	1.113023
C	0.132076	1.665273	0.790323
H	-0.020624	-0.080827	2.149723
C	0.151376	1.885073	-0.598877
S	0.018376	0.365073	-1.473177
C	0.226976	2.748873	1.828223
H	0.189876	2.324773	2.850323
H	-0.605024	3.478373	1.739823
H	1.172976	3.322873	1.739823
C	-0.063824	-2.014427	0.013623
H	0.999776	-2.014627	0.201323
H	0.078476	-2.718227	-0.793077
H	-0.228324	-2.533327	0.946323
H	0.234076	2.830673	-1.147977
$end

$rem
JOBTYPE		SP
EXCHANGE	HF
CORRELATION	pRIMP2
BASIS		cc-pvtz
METHOD		rimp2
AUX_BASIS	rimp2-cc-pvtz
SOLVENT_METHOD	PCM
PURECART	11111
SYMMETRY	false
MEM_TOTAL	110000
SCF_CONVERGENCE = 6
THRESH=10
$end

$solvent
dielectric 4.90
$end
--------------------------------------------------------------

             Standard Nuclear Orientation (Angstroms)
    I     Atom           X                Y                Z
 ----------------------------------------------------------------
    1      C      -0.0638240000    -0.5737270000     0.0136230000
    2      C       0.0114760000     0.2865730000     1.1130230000
    3      C       0.1320760000     1.6652730000     0.7903230000
    4      H      -0.0206240000    -0.0808270000     2.1497230000
    5      C       0.1513760000     1.8850730000    -0.5988770000
    6      S       0.0183760000     0.3650730000    -1.4731770000
    7      C       0.2269760000     2.7488730000     1.8282230000
    8      H       0.1898760000     2.3247730000     2.8503230000
    9      H      -0.6050240000     3.4783730000     1.7398230000
   10      H       1.1729760000     3.3228730000     1.7398230000
   11      C      -0.0638240000    -2.0144270000     0.0136230000
   12      H       0.9997760000    -2.0146270000     0.2013230000
   13      H       0.0784760000    -2.7182270000    -0.7930770000
   14      H      -0.2283240000    -2.5333270000     0.9463230000
   15      H       0.2340760000     2.8306730000    -1.1479770000
 ----------------------------------------------------------------

   10    -629.4248726505      6.99e-07  Convergence criterion met
 Total energy in the final basis set =     -629.4248726505
        RIMP2         total energy =      -630.6002210423 a.u.

                    Orbital Energies (a.u.)
 --------------------------------------------------------------

 Alpha MOs
 -- Occupied --
-91.9779 -11.2869 -11.2481 -11.2469 -11.2265 -11.2229 -11.2227  -8.9777
 -6.6587  -6.6582  -6.6576  -1.1604  -1.0564  -0.9978  -0.9411  -0.8829
 -0.7433  -0.7189  -0.6480  -0.5898  -0.5749  -0.5706  -0.5540  -0.5452
 -0.5078  -0.4923  -0.4662  -0.4561  -0.3382  -0.2883

          Ground-State Mulliken Net Atomic Charges

     Atom                 Charge (a.u.)
  ----------------------------------------
      1 C                     0.071196
      2 C                    -0.311299
      3 C                     0.049834
      4 H                     0.175194
      5 C                    -0.282084
      6 S                    -0.000359
      7 C                    -0.274551
      8 H                     0.101228
      9 H                     0.107288
     10 H                     0.107460
     11 C                    -0.386963
     12 H                     0.146963
     13 H                     0.163015
     14 H                     0.140944
     15 H                     0.192135
  ----------------------------------------
  Sum of atomic charges =     0.000000

                    Cartesian Multipole Moments
 -----------------------------------------------------------------
    Charge (ESU x 10^10)
                -0.0000
    Dipole Moment (Debye)
         X       0.8237      Y      -0.8065      Z       1.5284
       Tot       1.9144
    Quadrupole Moments (Debye-Ang)
        XX     -54.4003     XY      -0.7920     YY     -41.7726
        XZ      -0.0370     YZ       0.2365     ZZ     -48.6152

 Total job time:  157.96s(wall), 157.00s(cpu)
        *  Thank you very much for using Q-Chem.  Have a nice day.  *
