 Q-Chem 5.4, Q-Chem, Inc., Pleasanton, CA (2021)
 Q-Chem 5.4.0 for Intel X86 EM64T Linux

User input:
--------------------------------------------------------------
$molecule
0 1
C	-0.180253	-0.553189	0.013623
C	0.043247	0.281011	1.113023
C	0.401447	1.617711	0.790323
H	-0.052153	-0.075289	2.149723
C	0.458647	1.830811	-0.598877
S	0.063647	0.357111	-1.473177
C	0.683047	2.668411	1.828223
H	0.572847	2.257311	2.850323
H	-0.009553	3.531411	1.739823
H	1.714347	3.069411	1.739823
C	-0.180253	-1.993889	0.013623
H	0.883347	-1.994089	0.201323
H	-0.037953	-2.697689	-0.793077
H	-0.344753	-2.512789	0.946323
H	0.704347	2.747711	-1.147977
$end

$rem
JOBTYPE		SP
EXCHANGE	HF
CORRELATION	pRIMP2
BASIS		cc-pvtz
METHOD		rimp2
AUX_BASIS	rimp2-cc-pvtz
SOLVENT_METHOD	PCM
PURECART	11111
SYMMETRY	false
MEM_TOTAL	110000
SCF_CONVERGENCE = 6
THRESH=10
$end

$solvent
dielectric 4.90
$end
--------------------------------------------------------------

             Standard Nuclear Orientation (Angstroms)
    I     Atom           X                Y                Z
 ----------------------------------------------------------------
    1      C      -0.1802530000    -0.5531890000     0.0136230000
    2      C       0.0432470000     0.2810110000     1.1130230000
    3      C       0.4014470000     1.6177110000     0.7903230000
    4      H      -0.0521530000    -0.0752890000     2.1497230000
    5      C       0.4586470000     1.8308110000    -0.5988770000
    6      S       0.0636470000     0.3571110000    -1.4731770000
    7      C       0.6830470000     2.6684110000     1.8282230000
    8      H       0.5728470000     2.2573110000     2.8503230000
    9      H      -0.0095530000     3.5314110000     1.7398230000
   10      H       1.7143470000     3.0694110000     1.7398230000
   11      C      -0.1802530000    -1.9938890000     0.0136230000
   12      H       0.8833470000    -1.9940890000     0.2013230000
   13      H      -0.0379530000    -2.6976890000    -0.7930770000
   14      H      -0.3447530000    -2.5127890000     0.9463230000
   15      H       0.7043470000     2.7477110000    -1.1479770000
 ----------------------------------------------------------------

   10    -629.4216393876      6.95e-07  Convergence criterion met
 Total energy in the final basis set =     -629.4216393876
        RIMP2         total energy =      -630.5977994609 a.u.

                    Orbital Energies (a.u.)
 --------------------------------------------------------------

 Alpha MOs
 -- Occupied --
-91.9780 -11.2861 -11.2489 -11.2473 -11.2266 -11.2232 -11.2225  -8.9778
 -6.6588  -6.6582  -6.6576  -1.1614  -1.0565  -0.9977  -0.9406  -0.8827
 -0.7436  -0.7193  -0.6477  -0.5895  -0.5766  -0.5699  -0.5537  -0.5452
 -0.5078  -0.4912  -0.4664  -0.4565  -0.3383  -0.2881

          Ground-State Mulliken Net Atomic Charges

     Atom                 Charge (a.u.)
  ----------------------------------------
      1 C                     0.062525
      2 C                    -0.310117
      3 C                     0.053234
      4 H                     0.174846
      5 C                    -0.282849
      6 S                     0.000728
      7 C                    -0.272590
      8 H                     0.101320
      9 H                     0.107391
     10 H                     0.107180
     11 C                    -0.383197
     12 H                     0.150507
     13 H                     0.161083
     14 H                     0.137713
     15 H                     0.192225
  ----------------------------------------
  Sum of atomic charges =     0.000000

                    Cartesian Multipole Moments
 -----------------------------------------------------------------
    Charge (ESU x 10^10)
                -0.0000
    Dipole Moment (Debye)
         X       1.0013      Y      -0.7742      Z       1.5370
       Tot       1.9911
    Quadrupole Moments (Debye-Ang)
        XX     -54.0747     XY       0.7205     YY     -42.3959
        XZ       0.0289     YZ       0.1934     ZZ     -48.5968

 Total job time:  156.90s(wall), 155.74s(cpu)
        *  Thank you very much for using Q-Chem.  Have a nice day.  *
