 Q-Chem 5.4, Q-Chem, Inc., Pleasanton, CA (2021)
 Q-Chem 5.4.0 for Intel X86 EM64T Linux

User input:
--------------------------------------------------------------
$molecule
0 1
C	-0.171212	-0.553189	0.017232
C	0.052288	0.281011	1.116632
C	0.410488	1.617711	0.793932
H	-0.043112	-0.075289	2.153332
C	0.467688	1.830811	-0.595268
S	0.072688	0.357111	-1.469568
C	0.692088	2.668411	1.831832
H	0.581888	2.257311	2.853932
H	-0.000512	3.531411	1.743432
H	1.723388	3.069411	1.743432
C	-0.171212	-1.993889	0.017232
H	-1.186012	-1.994089	-0.352268
H	-0.451412	-2.697689	0.787032
H	0.152688	-2.512789	-0.872768
H	0.713388	2.747711	-1.144368
$end

$rem
JOBTYPE		SP
EXCHANGE	HF
CORRELATION	pRIMP2
BASIS		cc-pvtz
METHOD		rimp2
AUX_BASIS	rimp2-cc-pvtz
SOLVENT_METHOD	PCM
PURECART	11111
SYMMETRY	false
MEM_TOTAL	110000
SCF_CONVERGENCE = 6
THRESH=10
$end

$solvent
dielectric 4.90
$end
--------------------------------------------------------------

             Standard Nuclear Orientation (Angstroms)
    I     Atom           X                Y                Z
 ----------------------------------------------------------------
    1      C      -0.1712120000    -0.5531890000     0.0172320000
    2      C       0.0522880000     0.2810110000     1.1166320000
    3      C       0.4104880000     1.6177110000     0.7939320000
    4      H      -0.0431120000    -0.0752890000     2.1533320000
    5      C       0.4676880000     1.8308110000    -0.5952680000
    6      S       0.0726880000     0.3571110000    -1.4695680000
    7      C       0.6920880000     2.6684110000     1.8318320000
    8      H       0.5818880000     2.2573110000     2.8539320000
    9      H      -0.0005120000     3.5314110000     1.7434320000
   10      H       1.7233880000     3.0694110000     1.7434320000
   11      C      -0.1712120000    -1.9938890000     0.0172320000
   12      H      -1.1860120000    -1.9940890000    -0.3522680000
   13      H      -0.4514120000    -2.6976890000     0.7870320000
   14      H       0.1526880000    -2.5127890000    -0.8727680000
   15      H       0.7133880000     2.7477110000    -1.1443680000
 ----------------------------------------------------------------

   10    -629.4168124000      6.48e-07  Convergence criterion met
 Total energy in the final basis set =     -629.4168124000
        RIMP2         total energy =      -630.5936551300 a.u.

                    Orbital Energies (a.u.)
 --------------------------------------------------------------

 Alpha MOs
 -- Occupied --
-91.9788 -11.2815 -11.2517 -11.2468 -11.2263 -11.2244 -11.2194  -8.9787
 -6.6597  -6.6591  -6.6585  -1.1604  -1.0557  -0.9962  -0.9438  -0.8822
 -0.7450  -0.7185  -0.6483  -0.5874  -0.5740  -0.5678  -0.5527  -0.5467
 -0.5089  -0.4923  -0.4622  -0.4560  -0.3386  -0.2893

          Ground-State Mulliken Net Atomic Charges

     Atom                 Charge (a.u.)
  ----------------------------------------
      1 C                     0.037954
      2 C                    -0.277836
      3 C                     0.040852
      4 H                     0.179384
      5 C                    -0.269333
      6 S                    -0.003577
      7 C                    -0.273249
      8 H                     0.101325
      9 H                     0.107078
     10 H                     0.106983
     11 C                    -0.378877
     12 H                     0.133472
     13 H                     0.162736
     14 H                     0.138874
     15 H                     0.194213
  ----------------------------------------
  Sum of atomic charges =     0.000000

                    Cartesian Multipole Moments
 -----------------------------------------------------------------
    Charge (ESU x 10^10)
                -0.0000
    Dipole Moment (Debye)
         X      -0.3518      Y      -0.5398      Z       1.1770
       Tot       1.3418
    Quadrupole Moments (Debye-Ang)
        XX     -53.5775     XY       3.6929     YY     -42.4491
        XZ      -0.1477     YZ       0.6258     ZZ     -48.5560

 Total job time:  155.08s(wall), 154.41s(cpu)
        *  Thank you very much for using Q-Chem.  Have a nice day.  *
