 Q-Chem 5.4, Q-Chem, Inc., Pleasanton, CA (2021)
 Q-Chem 5.4.0 for Intel X86 EM64T Linux

User input:
--------------------------------------------------------------
$molecule
0 1
C	-0.337249	-0.485419	0.019522
C	0.094551	0.262481	1.118922
C	0.786551	1.460981	0.796222
H	-0.089849	-0.056919	2.155622
C	0.896851	1.652081	-0.592978
S	0.133951	0.330681	-1.467278
C	1.330451	2.402981	1.834122
H	1.117651	2.034381	2.856222
H	0.884751	3.415781	1.745722
H	2.430451	2.523381	1.745722
C	-0.337249	-1.926119	0.019522
H	-0.877149	-1.926319	-0.915878
H	-1.046749	-2.629919	0.429022
H	0.482951	-2.445019	-0.454078
H	1.371551	2.474081	-1.142078
$end

$rem
JOBTYPE		SP
EXCHANGE	HF
CORRELATION	pRIMP2
BASIS		cc-pvtz
METHOD		rimp2
AUX_BASIS	rimp2-cc-pvtz
SOLVENT_METHOD	PCM
PURECART	11111
SYMMETRY	false
MEM_TOTAL	110000
SCF_CONVERGENCE = 6
THRESH=10
$end

$solvent
dielectric 4.90
$end
--------------------------------------------------------------

   10    -629.4028320477      5.25e-07  Convergence criterion met
 Total energy in the final basis set =     -629.4028320477
        RIMP2         total energy =      -630.5842162540 a.u.
 Total job time:  157.16s(wall), 155.30s(cpu)
        *  Thank you very much for using Q-Chem.  Have a nice day.  *
 Q-Chem 5.4, Q-Chem, Inc., Pleasanton, CA (2021)
 Q-Chem 5.4.0 for Intel X86 EM64T Linux

User input:
--------------------------------------------------------------
$molecule
0 1
C	-0.337249	-0.485419	0.019522
C	0.094551	0.262481	1.118922
C	0.786551	1.460981	0.796222
H	-0.089849	-0.056919	2.155622
C	0.896851	1.652081	-0.592978
S	0.133951	0.330681	-1.467278
C	1.330451	2.402981	1.834122
H	1.117651	2.034381	2.856222
H	0.884751	3.415781	1.745722
H	2.430451	2.523381	1.745722
C	-0.337249	-1.926119	0.019522
H	-0.877149	-1.926319	-0.915878
H	-1.046749	-2.629919	0.429022
H	0.482951	-2.445019	-0.454078
H	1.371551	2.474081	-1.142078
$end

$rem
JOBTYPE		SP
EXCHANGE	HF
CORRELATION	pRIMP2
BASIS		cc-pvtz
METHOD		rimp2
AUX_BASIS	rimp2-cc-pvtz
SOLVENT_METHOD	PCM
PURECART	11111
SYMMETRY	false
MEM_TOTAL	110000
SCF_CONVERGENCE = 6
THRESH=10
$end

$solvent
dielectric 4.90
$end
--------------------------------------------------------------

             Standard Nuclear Orientation (Angstroms)
    I     Atom           X                Y                Z
 ----------------------------------------------------------------
    1      C      -0.3372490000    -0.4854190000     0.0195220000
    2      C       0.0945510000     0.2624810000     1.1189220000
    3      C       0.7865510000     1.4609810000     0.7962220000
    4      H      -0.0898490000    -0.0569190000     2.1556220000
    5      C       0.8968510000     1.6520810000    -0.5929780000
    6      S       0.1339510000     0.3306810000    -1.4672780000
    7      C       1.3304510000     2.4029810000     1.8341220000
    8      H       1.1176510000     2.0343810000     2.8562220000
    9      H       0.8847510000     3.4157810000     1.7457220000
   10      H       2.4304510000     2.5233810000     1.7457220000
   11      C      -0.3372490000    -1.9261190000     0.0195220000
   12      H      -0.8771490000    -1.9263190000    -0.9158780000
   13      H      -1.0467490000    -2.6299190000     0.4290220000
   14      H       0.4829510000    -2.4450190000    -0.4540780000
   15      H       1.3715510000     2.4740810000    -1.1420780000
 ----------------------------------------------------------------

   10    -629.4028320477      5.25e-07  Convergence criterion met
 Total energy in the final basis set =     -629.4028320477
        RIMP2         total energy =      -630.5842162540 a.u.

                    Orbital Energies (a.u.)
 --------------------------------------------------------------

 Alpha MOs
 -- Occupied --
-91.9795 -11.2686 -11.2624 -11.2473 -11.2323 -11.2271 -11.2139  -8.9795
 -6.6604  -6.6599  -6.6593  -1.1630  -1.0548  -0.9949  -0.9453  -0.8813
 -0.7484  -0.7203  -0.6458  -0.5911  -0.5752  -0.5671  -0.5528  -0.5466
 -0.5118  -0.4796  -0.4629  -0.4459  -0.3377  -0.2998

          Ground-State Mulliken Net Atomic Charges

     Atom                 Charge (a.u.)
  ----------------------------------------
      1 C                    -0.003697
      2 C                    -0.234104
      3 C                     0.032134
      4 H                     0.179195
      5 C                    -0.242635
      6 S                     0.000864
      7 C                    -0.271438
      8 H                     0.101840
      9 H                     0.106861
     10 H                     0.106011
     11 C                    -0.365007
     12 H                     0.111762
     13 H                     0.150656
     14 H                     0.132526
     15 H                     0.195033
  ----------------------------------------
  Sum of atomic charges =     0.000000

                    Cartesian Multipole Moments
 -----------------------------------------------------------------
    Charge (ESU x 10^10)
                -0.0000
    Dipole Moment (Debye)
         X       0.5981      Y       0.0877      Z       1.0106
       Tot       1.1776
    Quadrupole Moments (Debye-Ang)
        XX     -51.6482     XY       4.6946     YY     -44.6305
        XZ      -0.1242     YZ       1.0102     ZZ     -48.6198

 Total job time:  155.95s(wall), 155.31s(cpu)
        *  Thank you very much for using Q-Chem.  Have a nice day.  *
