 Q-Chem 5.4, Q-Chem, Inc., Pleasanton, CA (2021)
 Q-Chem 5.4.0 for Intel X86 EM64T Linux

User input:
--------------------------------------------------------------
$molecule
0 1
C	-0.524132	-0.333974	0.013103
C	0.137468	0.221126	1.112503
C	1.197568	1.110626	0.789803
H	-0.145032	-0.015974	2.149203
C	1.366668	1.252426	-0.599397
S	0.197768	0.271726	-1.473697
C	2.030868	1.809826	1.827703
H	1.704768	1.536226	2.849803
H	1.958468	2.914026	1.739303
H	3.105668	1.546726	1.739303
C	-0.524132	-1.774674	0.013103
H	0.411068	-1.774374	0.553203
H	-0.933732	-2.478474	0.722503
H	-0.050532	-2.293574	-0.807097
H	2.093768	1.862626	-1.148497
$end

$rem
JOBTYPE		SP
EXCHANGE	HF
CORRELATION	pRIMP2
BASIS		cc-pvtz
METHOD		rimp2
AUX_BASIS	rimp2-cc-pvtz
SOLVENT_METHOD	PCM
PURECART	11111
SYMMETRY	false
MEM_TOTAL	110000
SCF_CONVERGENCE = 6
THRESH=10
$end

$solvent
dielectric 4.90
$end
--------------------------------------------------------------

             Standard Nuclear Orientation (Angstroms)
    I     Atom           X                Y                Z
 ----------------------------------------------------------------
    1      C      -0.5241320000    -0.3339740000     0.0131030000
    2      C       0.1374680000     0.2211260000     1.1125030000
    3      C       1.1975680000     1.1106260000     0.7898030000
    4      H      -0.1450320000    -0.0159740000     2.1492030000
    5      C       1.3666680000     1.2524260000    -0.5993970000
    6      S       0.1977680000     0.2717260000    -1.4736970000
    7      C       2.0308680000     1.8098260000     1.8277030000
    8      H       1.7047680000     1.5362260000     2.8498030000
    9      H       1.9584680000     2.9140260000     1.7393030000
   10      H       3.1056680000     1.5467260000     1.7393030000
   11      C      -0.5241320000    -1.7746740000     0.0131030000
   12      H       0.4110680000    -1.7743740000     0.5532030000
   13      H      -0.9337320000    -2.4784740000     0.7225030000
   14      H      -0.0505320000    -2.2935740000    -0.8070970000
   15      H       2.0937680000     1.8626260000    -1.1484970000
 ----------------------------------------------------------------

   10    -629.3648300258      7.98e-07  Convergence criterion met
 Total energy in the final basis set =     -629.3648300258
        RIMP2         total energy =      -630.5545309319 a.u.

                    Orbital Energies (a.u.)
 --------------------------------------------------------------

 Alpha MOs
 -- Occupied --
-91.9794 -11.2676 -11.2645 -11.2492 -11.2359 -11.2283 -11.2114  -8.9795
 -6.6604  -6.6597  -6.6593  -1.1718  -1.0569  -0.9990  -0.9361  -0.8814
 -0.7472  -0.7272  -0.6456  -0.5908  -0.5776  -0.5684  -0.5549  -0.5453
 -0.5114  -0.4815  -0.4576  -0.4537  -0.3340  -0.2875

          Ground-State Mulliken Net Atomic Charges

     Atom                 Charge (a.u.)
  ----------------------------------------
      1 C                    -0.053402
      2 C                    -0.176758
      3 C                     0.000363
      4 H                     0.178563
      5 C                    -0.233721
      6 S                     0.022679
      7 C                    -0.268477
      8 H                     0.101966
      9 H                     0.107312
     10 H                     0.104341
     11 C                    -0.378632
     12 H                     0.134624
     13 H                     0.132607
     14 H                     0.132468
     15 H                     0.196067
  ----------------------------------------
  Sum of atomic charges =     0.000000

                    Cartesian Multipole Moments
 -----------------------------------------------------------------
    Charge (ESU x 10^10)
                -0.0000
    Dipole Moment (Debye)
         X       2.1071      Y      -0.1563      Z       1.7767
       Tot       2.7606
    Quadrupole Moments (Debye-Ang)
        XX     -50.2075     XY       3.6904     YY     -48.3349
        XZ      -0.3681     YZ      -0.6937     ZZ     -47.8348

 Total job time:  163.56s(wall), 161.88s(cpu)
        *  Thank you very much for using Q-Chem.  Have a nice day.  *
