 Q-Chem 5.4, Q-Chem, Inc., Pleasanton, CA (2021)
 Q-Chem 5.4.0 for Intel X86 EM64T Linux

User input:
--------------------------------------------------------------
$molecule
0 1
C	-0.113056	-0.566007	0.013913
C	0.036944	0.284493	1.113313
C	0.277244	1.647393	0.790613
H	-0.027156	-0.078707	2.150013
C	0.315644	1.864693	-0.598587
S	0.050644	0.362093	-1.472887
C	0.466144	2.718593	1.828513
H	0.392244	2.299393	2.850613
H	-0.299056	3.517893	1.740113
H	1.458644	3.207893	1.740113
C	-0.113056	-2.006707	0.013913
H	-1.127956	-2.006907	0.383213
H	0.167044	-2.710507	0.783713
H	-0.436956	-2.525607	-0.876087
H	0.480444	2.799393	-1.147687
$end

$rem
JOBTYPE		SP
EXCHANGE	HF
CORRELATION	pRIMP2
BASIS		cc-pvtz
METHOD		rimp2
AUX_BASIS	rimp2-cc-pvtz
SOLVENT_METHOD	PCM
PURECART	11111
SYMMETRY	false
MEM_TOTAL	110000
SCF_CONVERGENCE = 6
THRESH=10
$end

$solvent
dielectric 4.90
$end
--------------------------------------------------------------

   10    -629.4207546448      6.58e-07  Convergence criterion met
 Total energy in the final basis set =     -629.4207546448
        RIMP2         total energy =      -630.5974813507 a.u.
 Total job time:  157.39s(wall), 154.91s(cpu)
        *  Thank you very much for using Q-Chem.  Have a nice day.  *
 Q-Chem 5.4, Q-Chem, Inc., Pleasanton, CA (2021)
 Q-Chem 5.4.0 for Intel X86 EM64T Linux

User input:
--------------------------------------------------------------
$molecule
0 1
C	-0.113056	-0.566007	0.013913
C	0.036944	0.284493	1.113313
C	0.277244	1.647393	0.790613
H	-0.027156	-0.078707	2.150013
C	0.315644	1.864693	-0.598587
S	0.050644	0.362093	-1.472887
C	0.466144	2.718593	1.828513
H	0.392244	2.299393	2.850613
H	-0.299056	3.517893	1.740113
H	1.458644	3.207893	1.740113
C	-0.113056	-2.006707	0.013913
H	-1.127956	-2.006907	0.383213
H	0.167044	-2.710507	0.783713
H	-0.436956	-2.525607	-0.876087
H	0.480444	2.799393	-1.147687
$end

$rem
JOBTYPE		SP
EXCHANGE	HF
CORRELATION	pRIMP2
BASIS		cc-pvtz
METHOD		rimp2
AUX_BASIS	rimp2-cc-pvtz
SOLVENT_METHOD	PCM
PURECART	11111
SYMMETRY	false
MEM_TOTAL	110000
SCF_CONVERGENCE = 6
THRESH=10
$end

$solvent
dielectric 4.90
$end
--------------------------------------------------------------

             Standard Nuclear Orientation (Angstroms)
    I     Atom           X                Y                Z
 ----------------------------------------------------------------
    1      C      -0.1130560000    -0.5660070000     0.0139130000
    2      C       0.0369440000     0.2844930000     1.1133130000
    3      C       0.2772440000     1.6473930000     0.7906130000
    4      H      -0.0271560000    -0.0787070000     2.1500130000
    5      C       0.3156440000     1.8646930000    -0.5985870000
    6      S       0.0506440000     0.3620930000    -1.4728870000
    7      C       0.4661440000     2.7185930000     1.8285130000
    8      H       0.3922440000     2.2993930000     2.8506130000
    9      H      -0.2990560000     3.5178930000     1.7401130000
   10      H       1.4586440000     3.2078930000     1.7401130000
   11      C      -0.1130560000    -2.0067070000     0.0139130000
   12      H      -1.1279560000    -2.0069070000     0.3832130000
   13      H       0.1670440000    -2.7105070000     0.7837130000
   14      H      -0.4369560000    -2.5256070000    -0.8760870000
   15      H       0.4804440000     2.7993930000    -1.1476870000
 ----------------------------------------------------------------

   10    -629.4207546448      6.58e-07  Convergence criterion met
 Total energy in the final basis set =     -629.4207546448
        RIMP2         total energy =      -630.5974813507 a.u.

                    Orbital Energies (a.u.)
 --------------------------------------------------------------

 Alpha MOs
 -- Occupied --
-91.9783 -11.2832 -11.2499 -11.2471 -11.2265 -11.2245 -11.2202  -8.9780
 -6.6590  -6.6584  -6.6578  -1.1600  -1.0554  -0.9977  -0.9416  -0.8831
 -0.7431  -0.7195  -0.6494  -0.5866  -0.5732  -0.5672  -0.5575  -0.5448
 -0.5086  -0.4936  -0.4633  -0.4543  -0.3377  -0.2895

          Ground-State Mulliken Net Atomic Charges

     Atom                 Charge (a.u.)
  ----------------------------------------
      1 C                     0.065517
      2 C                    -0.312624
      3 C                     0.052669
      4 H                     0.174707
      5 C                    -0.276690
      6 S                     0.004276
      7 C                    -0.274472
      8 H                     0.101260
      9 H                     0.107203
     10 H                     0.107259
     11 C                    -0.380153
     12 H                     0.140102
     13 H                     0.161626
     14 H                     0.137186
     15 H                     0.192134
  ----------------------------------------
  Sum of atomic charges =     0.000000

                    Cartesian Multipole Moments
 -----------------------------------------------------------------
    Charge (ESU x 10^10)
                -0.0000
    Dipole Moment (Debye)
         X      -0.4992      Y      -0.6270      Z       1.6482
       Tot       1.8328
    Quadrupole Moments (Debye-Ang)
        XX     -53.9180     XY       2.9728     YY     -42.1622
        XZ       0.1990     YZ      -0.3035     ZZ     -48.5576

 Total job time:  156.98s(wall), 155.57s(cpu)
        *  Thank you very much for using Q-Chem.  Have a nice day.  *
