 Q-Chem 5.4, Q-Chem, Inc., Pleasanton, CA (2021)
 Q-Chem 5.4.0 for Intel X86 EM64T Linux

User input:
--------------------------------------------------------------
$molecule
0 1
C	-0.175000	-0.553191	0.019883
C	0.048500	0.281009	1.119283
C	0.406700	1.617709	0.796583
H	-0.046900	-0.075291	2.155983
C	0.463900	1.830809	-0.592617
S	0.068900	0.357109	-1.466917
C	0.688300	2.668409	1.834483
H	0.578100	2.257309	2.856583
H	-0.004300	3.531409	1.746083
H	1.719600	3.069409	1.746083
C	-0.175000	-1.993891	0.019883
H	-0.174900	-1.993591	-1.060117
H	0.644200	-2.697691	0.019983
H	-1.122100	-2.512791	0.019883
H	0.709600	2.747709	-1.141717
$end

$rem
JOBTYPE		SP
EXCHANGE	HF
CORRELATION	pRIMP2
BASIS		cc-pvtz
METHOD		rimp2
AUX_BASIS	rimp2-cc-pvtz
SOLVENT_METHOD	PCM
PURECART	11111
SYMMETRY	false
MEM_TOTAL	110000
SCF_CONVERGENCE = 6
THRESH=10
$end

$solvent
dielectric 4.90
$end
--------------------------------------------------------------

             Standard Nuclear Orientation (Angstroms)
    I     Atom           X                Y                Z
 ----------------------------------------------------------------
    1      C      -0.1750000000    -0.5531910000     0.0198830000
    2      C       0.0485000000     0.2810090000     1.1192830000
    3      C       0.4067000000     1.6177090000     0.7965830000
    4      H      -0.0469000000    -0.0752910000     2.1559830000
    5      C       0.4639000000     1.8308090000    -0.5926170000
    6      S       0.0689000000     0.3571090000    -1.4669170000
    7      C       0.6883000000     2.6684090000     1.8344830000
    8      H       0.5781000000     2.2573090000     2.8565830000
    9      H      -0.0043000000     3.5314090000     1.7460830000
   10      H       1.7196000000     3.0694090000     1.7460830000
   11      C      -0.1750000000    -1.9938910000     0.0198830000
   12      H      -0.1749000000    -1.9935910000    -1.0601170000
   13      H       0.6442000000    -2.6976910000     0.0199830000
   14      H      -1.1221000000    -2.5127910000     0.0198830000
   15      H       0.7096000000     2.7477090000    -1.1417170000
 ----------------------------------------------------------------

   10    -629.4152951086      5.36e-07  Convergence criterion met
 Total energy in the final basis set =     -629.4152951086
        RIMP2         total energy =      -630.5943494002 a.u.

                    Orbital Energies (a.u.)
 --------------------------------------------------------------

 Alpha MOs
 -- Occupied --
-91.9803 -11.2724 -11.2595 -11.2471 -11.2307 -11.2269 -11.2149  -8.9802
 -6.6611  -6.6605  -6.6599  -1.1615  -1.0549  -0.9951  -0.9463  -0.8815
 -0.7484  -0.7191  -0.6479  -0.5903  -0.5759  -0.5668  -0.5530  -0.5474
 -0.5105  -0.4824  -0.4649  -0.4432  -0.3380  -0.3043

          Ground-State Mulliken Net Atomic Charges

     Atom                 Charge (a.u.)
  ----------------------------------------
      1 C                     0.041684
      2 C                    -0.263227
      3 C                     0.042552
      4 H                     0.179824
      5 C                    -0.256653
      6 S                    -0.002701
      7 C                    -0.272866
      8 H                     0.101951
      9 H                     0.106794
     10 H                     0.106680
     11 C                    -0.361436
     12 H                     0.112581
     13 H                     0.142665
     14 H                     0.126655
     15 H                     0.195497
  ----------------------------------------
  Sum of atomic charges =     0.000000

                    Cartesian Multipole Moments
 -----------------------------------------------------------------
    Charge (ESU x 10^10)
                -0.0000
    Dipole Moment (Debye)
         X       0.4106      Y       0.1080      Z       0.8746
       Tot       0.9721
    Quadrupole Moments (Debye-Ang)
        XX     -53.1402     XY       2.1164     YY     -42.9055
        XZ       0.1131     YZ       1.4350     ZZ     -48.7861

 Total job time:  156.21s(wall), 154.84s(cpu)
        *  Thank you very much for using Q-Chem.  Have a nice day.  *
