 Q-Chem 5.4, Q-Chem, Inc., Pleasanton, CA (2021)
 Q-Chem 5.4.0 for Intel X86 EM64T Linux

User input:
--------------------------------------------------------------
$molecule
0 1
C	-0.227334	-0.535397	0.013624
C	0.068066	0.276103	1.113024
C	0.541366	1.576503	0.790324
H	-0.058034	-0.070397	2.149724
C	0.616866	1.783903	-0.598876
S	0.094966	0.350203	-1.473176
C	0.913466	2.598703	1.828224
H	0.767866	2.198703	2.850324
H	0.298666	3.518703	1.739824
H	1.975866	2.908303	1.739824
C	-0.227334	-1.976097	0.013624
H	-1.290934	-1.975797	0.201024
H	-0.369534	-2.679897	-0.793176
H	-0.062834	-2.494997	0.946324
H	0.941566	2.675903	-1.147976
$end

$rem
JOBTYPE		SP
EXCHANGE	HF
CORRELATION	pRIMP2
BASIS		cc-pvtz
METHOD		rimp2
AUX_BASIS	rimp2-cc-pvtz
SOLVENT_METHOD	PCM
PURECART	11111
SYMMETRY	false
MEM_TOTAL	110000
SCF_CONVERGENCE = 6
THRESH=10
$end

$solvent
dielectric 4.90
$end
--------------------------------------------------------------

   10    -629.4129243744      6.33e-07  Convergence criterion met
 Total energy in the final basis set =     -629.4129243744
        RIMP2         total energy =      -630.5914585194 a.u.
 Total job time:  156.61s(wall), 155.55s(cpu)
        *  Thank you very much for using Q-Chem.  Have a nice day.  *
 Q-Chem 5.4, Q-Chem, Inc., Pleasanton, CA (2021)
 Q-Chem 5.4.0 for Intel X86 EM64T Linux

User input:
--------------------------------------------------------------
$molecule
0 1
C	-0.227334	-0.535397	0.013624
C	0.068066	0.276103	1.113024
C	0.541366	1.576503	0.790324
H	-0.058034	-0.070397	2.149724
C	0.616866	1.783903	-0.598876
S	0.094966	0.350203	-1.473176
C	0.913466	2.598703	1.828224
H	0.767866	2.198703	2.850324
H	0.298666	3.518703	1.739824
H	1.975866	2.908303	1.739824
C	-0.227334	-1.976097	0.013624
H	-1.290934	-1.975797	0.201024
H	-0.369534	-2.679897	-0.793176
H	-0.062834	-2.494997	0.946324
H	0.941566	2.675903	-1.147976
$end

$rem
JOBTYPE		SP
EXCHANGE	HF
CORRELATION	pRIMP2
BASIS		cc-pvtz
METHOD		rimp2
AUX_BASIS	rimp2-cc-pvtz
SOLVENT_METHOD	PCM
PURECART	11111
SYMMETRY	false
MEM_TOTAL	110000
SCF_CONVERGENCE = 6
THRESH=10
$end

$solvent
dielectric 4.90
$end
--------------------------------------------------------------

             Standard Nuclear Orientation (Angstroms)
    I     Atom           X                Y                Z
 ----------------------------------------------------------------
    1      C      -0.2273340000    -0.5353970000     0.0136240000
    2      C       0.0680660000     0.2761030000     1.1130240000
    3      C       0.5413660000     1.5765030000     0.7903240000
    4      H      -0.0580340000    -0.0703970000     2.1497240000
    5      C       0.6168660000     1.7839030000    -0.5988760000
    6      S       0.0949660000     0.3502030000    -1.4731760000
    7      C       0.9134660000     2.5987030000     1.8282240000
    8      H       0.7678660000     2.1987030000     2.8503240000
    9      H       0.2986660000     3.5187030000     1.7398240000
   10      H       1.9758660000     2.9083030000     1.7398240000
   11      C      -0.2273340000    -1.9760970000     0.0136240000
   12      H      -1.2909340000    -1.9757970000     0.2010240000
   13      H      -0.3695340000    -2.6798970000    -0.7931760000
   14      H      -0.0628340000    -2.4949970000     0.9463240000
   15      H       0.9415660000     2.6759030000    -1.1479760000
 ----------------------------------------------------------------

   10    -629.4129243744      6.33e-07  Convergence criterion met
 Total energy in the final basis set =     -629.4129243744
        RIMP2         total energy =      -630.5914585194 a.u.

                    Orbital Energies (a.u.)
 --------------------------------------------------------------

 Alpha MOs
 -- Occupied --
-91.9766 -11.2816 -11.2511 -11.2472 -11.2266 -11.2265 -11.2189  -8.9765
 -6.6575  -6.6569  -6.6563  -1.1606  -1.0553  -0.9975  -0.9413  -0.8831
 -0.7435  -0.7198  -0.6464  -0.5883  -0.5740  -0.5708  -0.5539  -0.5447
 -0.5100  -0.4941  -0.4598  -0.4529  -0.3377  -0.2877

          Ground-State Mulliken Net Atomic Charges

     Atom                 Charge (a.u.)
  ----------------------------------------
      1 C                     0.051703
      2 C                    -0.305605
      3 C                     0.053362
      4 H                     0.175926
      5 C                    -0.274338
      6 S                     0.002659
      7 C                    -0.271841
      8 H                     0.101325
      9 H                     0.107198
     10 H                     0.107081
     11 C                    -0.381202
     12 H                     0.137661
     13 H                     0.162244
     14 H                     0.142084
     15 H                     0.191742
  ----------------------------------------
  Sum of atomic charges =     0.000000

                    Cartesian Multipole Moments
 -----------------------------------------------------------------
    Charge (ESU x 10^10)
                -0.0000
    Dipole Moment (Debye)
         X      -0.3120      Y      -0.6147      Z       1.5757
       Tot       1.7199
    Quadrupole Moments (Debye-Ang)
        XX     -53.1226     XY       4.3978     YY     -43.0123
        XZ       0.1883     YZ       0.2093     ZZ     -48.5036

 Total job time:  157.64s(wall), 156.34s(cpu)
        *  Thank you very much for using Q-Chem.  Have a nice day.  *
