 Q-Chem 5.4, Q-Chem, Inc., Pleasanton, CA (2021)
 Q-Chem 5.4.0 for Intel X86 EM64T Linux

User input:
--------------------------------------------------------------
$molecule
0 1
C	-0.227256	-0.535395	0.013913
C	0.068144	0.276105	1.113313
C	0.541444	1.576505	0.790613
H	-0.057956	-0.070395	2.150013
C	0.616944	1.783905	-0.598587
S	0.095044	0.350205	-1.472887
C	0.913544	2.598705	1.828513
H	0.767944	2.198705	2.850613
H	0.298744	3.518705	1.740113
H	1.975944	2.908305	1.740113
C	-0.227256	-1.976095	0.013913
H	-1.242156	-1.976295	0.383213
H	0.052844	-2.679895	0.783713
H	-0.551156	-2.494995	-0.876087
H	0.941644	2.675905	-1.147687
$end

$rem
JOBTYPE		SP
EXCHANGE	HF
CORRELATION	pRIMP2
BASIS		cc-pvtz
METHOD		rimp2
AUX_BASIS	rimp2-cc-pvtz
SOLVENT_METHOD	PCM
PURECART	11111
SYMMETRY	false
MEM_TOTAL	110000
SCF_CONVERGENCE = 6
THRESH=10
$end

$solvent
dielectric 4.90
$end
--------------------------------------------------------------

   10    -629.4130142366      6.15e-07  Convergence criterion met
 Total energy in the final basis set =     -629.4130142366
        RIMP2         total energy =      -630.5918174618 a.u.
 Total job time:  158.51s(wall), 156.12s(cpu)
        *  Thank you very much for using Q-Chem.  Have a nice day.  *
 Q-Chem 5.4, Q-Chem, Inc., Pleasanton, CA (2021)
 Q-Chem 5.4.0 for Intel X86 EM64T Linux

User input:
--------------------------------------------------------------
$molecule
0 1
C	-0.227256	-0.535395	0.013913
C	0.068144	0.276105	1.113313
C	0.541444	1.576505	0.790613
H	-0.057956	-0.070395	2.150013
C	0.616944	1.783905	-0.598587
S	0.095044	0.350205	-1.472887
C	0.913544	2.598705	1.828513
H	0.767944	2.198705	2.850613
H	0.298744	3.518705	1.740113
H	1.975944	2.908305	1.740113
C	-0.227256	-1.976095	0.013913
H	-1.242156	-1.976295	0.383213
H	0.052844	-2.679895	0.783713
H	-0.551156	-2.494995	-0.876087
H	0.941644	2.675905	-1.147687
$end

$rem
JOBTYPE		SP
EXCHANGE	HF
CORRELATION	pRIMP2
BASIS		cc-pvtz
METHOD		rimp2
AUX_BASIS	rimp2-cc-pvtz
SOLVENT_METHOD	PCM
PURECART	11111
SYMMETRY	false
MEM_TOTAL	110000
SCF_CONVERGENCE = 6
THRESH=10
$end

$solvent
dielectric 4.90
$end
--------------------------------------------------------------

             Standard Nuclear Orientation (Angstroms)
    I     Atom           X                Y                Z
 ----------------------------------------------------------------
    1      C      -0.2272560000    -0.5353950000     0.0139130000
    2      C       0.0681440000     0.2761050000     1.1133130000
    3      C       0.5414440000     1.5765050000     0.7906130000
    4      H      -0.0579560000    -0.0703950000     2.1500130000
    5      C       0.6169440000     1.7839050000    -0.5985870000
    6      S       0.0950440000     0.3502050000    -1.4728870000
    7      C       0.9135440000     2.5987050000     1.8285130000
    8      H       0.7679440000     2.1987050000     2.8506130000
    9      H       0.2987440000     3.5187050000     1.7401130000
   10      H       1.9759440000     2.9083050000     1.7401130000
   11      C      -0.2272560000    -1.9760950000     0.0139130000
   12      H      -1.2421560000    -1.9762950000     0.3832130000
   13      H       0.0528440000    -2.6798950000     0.7837130000
   14      H      -0.5511560000    -2.4949950000    -0.8760870000
   15      H       0.9416440000     2.6759050000    -1.1476870000
 ----------------------------------------------------------------

   10    -629.4130142366      6.15e-07  Convergence criterion met
 Total energy in the final basis set =     -629.4130142366
        RIMP2         total energy =      -630.5918174618 a.u.

                    Orbital Energies (a.u.)
 --------------------------------------------------------------

 Alpha MOs
 -- Occupied --
-91.9772 -11.2797 -11.2525 -11.2473 -11.2271 -11.2267 -11.2182  -8.9771
 -6.6581  -6.6575  -6.6569  -1.1606  -1.0549  -0.9974  -0.9415  -0.8831
 -0.7434  -0.7203  -0.6485  -0.5856  -0.5740  -0.5663  -0.5576  -0.5445
 -0.5102  -0.4936  -0.4609  -0.4516  -0.3376  -0.2892

          Ground-State Mulliken Net Atomic Charges

     Atom                 Charge (a.u.)
  ----------------------------------------
      1 C                     0.048287
      2 C                    -0.305764
      3 C                     0.052968
      4 H                     0.175055
      5 C                    -0.269549
      6 S                     0.005231
      7 C                    -0.272468
      8 H                     0.101357
      9 H                     0.107120
     10 H                     0.107025
     11 C                    -0.377114
     12 H                     0.137106
     13 H                     0.162559
     14 H                     0.136346
     15 H                     0.191841
  ----------------------------------------
  Sum of atomic charges =     0.000000

                    Cartesian Multipole Moments
 -----------------------------------------------------------------
    Charge (ESU x 10^10)
                -0.0000
    Dipole Moment (Debye)
         X      -0.2494      Y      -0.5004      Z       1.6832
       Tot       1.7736
    Quadrupole Moments (Debye-Ang)
        XX     -53.0675     XY       4.2720     YY     -43.1080
        XZ       0.2282     YZ      -0.3302     ZZ     -48.4936

 Total job time:  158.08s(wall), 156.34s(cpu)
        *  Thank you very much for using Q-Chem.  Have a nice day.  *
