 Q-Chem 5.4, Q-Chem, Inc., Pleasanton, CA (2021)
 Q-Chem 5.4.0 for Intel X86 EM64T Linux

User input:
--------------------------------------------------------------
$molecule
0 1
C	-0.542140	-0.336365	0.014457
C	0.119460	0.218735	1.113857
C	1.179560	1.108235	0.791157
H	-0.163040	-0.018365	2.150557
C	1.348660	1.250035	-0.598043
S	0.179760	0.269335	-1.472343
C	2.012860	1.807435	1.829057
H	1.686760	1.533835	2.851157
H	1.940460	2.911635	1.740657
H	3.087660	1.544335	1.740657
C	-0.291940	-1.755165	0.014457
H	0.771660	-1.567865	0.014557
H	-0.169740	-2.448265	-0.804743
H	-0.201840	-2.266265	0.961557
H	2.075760	1.860235	-1.147143
$end

$rem
JOBTYPE		SP
EXCHANGE	HF
CORRELATION	pRIMP2
BASIS		cc-pvtz
METHOD		rimp2
AUX_BASIS	rimp2-cc-pvtz
SOLVENT_METHOD	PCM
PURECART	11111
SYMMETRY	false
MEM_TOTAL	110000
SCF_CONVERGENCE = 6
THRESH=10
$end

$solvent
dielectric 4.90
$end
--------------------------------------------------------------

             Standard Nuclear Orientation (Angstroms)
    I     Atom           X                Y                Z
 ----------------------------------------------------------------
    1      C      -0.5421400000    -0.3363650000     0.0144570000
    2      C       0.1194600000     0.2187350000     1.1138570000
    3      C       1.1795600000     1.1082350000     0.7911570000
    4      H      -0.1630400000    -0.0183650000     2.1505570000
    5      C       1.3486600000     1.2500350000    -0.5980430000
    6      S       0.1797600000     0.2693350000    -1.4723430000
    7      C       2.0128600000     1.8074350000     1.8290570000
    8      H       1.6867600000     1.5338350000     2.8511570000
    9      H       1.9404600000     2.9116350000     1.7406570000
   10      H       3.0876600000     1.5443350000     1.7406570000
   11      C      -0.2919400000    -1.7551650000     0.0144570000
   12      H       0.7716600000    -1.5678650000     0.0145570000
   13      H      -0.1697400000    -2.4482650000    -0.8047430000
   14      H      -0.2018400000    -2.2662650000     0.9615570000
   15      H       2.0757600000     1.8602350000    -1.1471430000
 ----------------------------------------------------------------

   11    -629.3496416826      4.86e-07  Convergence criterion met
 Total energy in the final basis set =     -629.3496416826
        RIMP2         total energy =      -630.5417742942 a.u.

                    Orbital Energies (a.u.)
 --------------------------------------------------------------

 Alpha MOs
 -- Occupied --
-91.9754 -11.2793 -11.2578 -11.2519 -11.2444 -11.2296 -11.2148  -8.9764
 -6.6572  -6.6565  -6.6561  -1.1791  -1.0599  -0.9995  -0.9368  -0.8811
 -0.7523  -0.7306  -0.6450  -0.5914  -0.5859  -0.5688  -0.5531  -0.5462
 -0.5105  -0.4931  -0.4615  -0.4347  -0.3387  -0.2891

          Ground-State Mulliken Net Atomic Charges

     Atom                 Charge (a.u.)
  ----------------------------------------
      1 C                    -0.075695
      2 C                    -0.153769
      3 C                    -0.011452
      4 H                     0.182520
      5 C                    -0.204859
      6 S                     0.016631
      7 C                    -0.267498
      8 H                     0.102823
      9 H                     0.107691
     10 H                     0.104769
     11 C                    -0.359317
     12 H                     0.105384
     13 H                     0.140108
     14 H                     0.115163
     15 H                     0.197501
  ----------------------------------------
  Sum of atomic charges =     0.000000

                    Cartesian Multipole Moments
 -----------------------------------------------------------------
    Charge (ESU x 10^10)
                -0.0000
    Dipole Moment (Debye)
         X       2.6830      Y       0.3313      Z       1.6410
       Tot       3.1624
    Quadrupole Moments (Debye-Ang)
        XX     -50.2651     XY       3.7719     YY     -48.4655
        XZ      -0.1584     YZ       0.0433     ZZ     -47.6822

 Total job time:  180.31s(wall), 178.40s(cpu)
        *  Thank you very much for using Q-Chem.  Have a nice day.  *
