 Q-Chem 5.4, Q-Chem, Inc., Pleasanton, CA (2021)
 Q-Chem 5.4.0 for Intel X86 EM64T Linux

User input:
--------------------------------------------------------------
$molecule
0 1
C	-0.432481	-0.417594	0.011685
C	0.122619	0.243906	1.111085
C	1.012219	1.304106	0.788385
H	-0.114381	-0.038594	2.147785
C	1.154119	1.473106	-0.600815
S	0.173319	0.304306	-1.475115
C	1.711419	2.137306	1.826285
H	1.437819	1.811306	2.848385
H	1.448419	3.212106	1.737885
H	2.815619	2.064906	1.737885
C	-0.432481	-1.858294	0.011685
H	-1.126781	-1.858494	0.838985
H	0.195019	-2.562094	0.538285
H	-1.158081	-2.377194	-0.597115
H	1.764219	2.200206	-1.149915
$end

$rem
JOBTYPE		SP
EXCHANGE	HF
CORRELATION	pRIMP2
BASIS		cc-pvtz
METHOD		rimp2
AUX_BASIS	rimp2-cc-pvtz
SOLVENT_METHOD	PCM
PURECART	11111
SYMMETRY	false
MEM_TOTAL	110000
SCF_CONVERGENCE = 6
THRESH=10
$end

$solvent
dielectric 4.90
$end
--------------------------------------------------------------

             Standard Nuclear Orientation (Angstroms)
    I     Atom           X                Y                Z
 ----------------------------------------------------------------
    1      C      -0.4324810000    -0.4175940000     0.0116850000
    2      C       0.1226190000     0.2439060000     1.1110850000
    3      C       1.0122190000     1.3041060000     0.7883850000
    4      H      -0.1143810000    -0.0385940000     2.1477850000
    5      C       1.1541190000     1.4731060000    -0.6008150000
    6      S       0.1733190000     0.3043060000    -1.4751150000
    7      C       1.7114190000     2.1373060000     1.8262850000
    8      H       1.4378190000     1.8113060000     2.8483850000
    9      H       1.4484190000     3.2121060000     1.7378850000
   10      H       2.8156190000     2.0649060000     1.7378850000
   11      C      -0.4324810000    -1.8582940000     0.0116850000
   12      H      -1.1267810000    -1.8584940000     0.8389850000
   13      H       0.1950190000    -2.5620940000     0.5382850000
   14      H      -1.1580810000    -2.3771940000    -0.5971150000
   15      H       1.7642190000     2.2002060000    -1.1499150000
 ----------------------------------------------------------------

   10    -629.3905077982      5.61e-07  Convergence criterion met
 Total energy in the final basis set =     -629.3905077982
        RIMP2         total energy =      -630.5756860385 a.u.

                    Orbital Energies (a.u.)
 --------------------------------------------------------------

 Alpha MOs
 -- Occupied --
-91.9728 -11.2671 -11.2627 -11.2484 -11.2413 -11.2281 -11.2118  -8.9734
 -6.6543  -6.6535  -6.6531  -1.1649  -1.0536  -0.9986  -0.9388  -0.8839
 -0.7446  -0.7262  -0.6465  -0.5850  -0.5799  -0.5662  -0.5569  -0.5425
 -0.5158  -0.4849  -0.4615  -0.4317  -0.3374  -0.2978

          Ground-State Mulliken Net Atomic Charges

     Atom                 Charge (a.u.)
  ----------------------------------------
      1 C                    -0.021221
      2 C                    -0.222168
      3 C                     0.019005
      4 H                     0.179619
      5 C                    -0.224629
      6 S                     0.001142
      7 C                    -0.269913
      8 H                     0.101386
      9 H                     0.106908
     10 H                     0.106228
     11 C                    -0.372609
     12 H                     0.119606
     13 H                     0.154972
     14 H                     0.127877
     15 H                     0.193798
  ----------------------------------------
  Sum of atomic charges =     0.000000

                    Cartesian Multipole Moments
 -----------------------------------------------------------------
    Charge (ESU x 10^10)
                -0.0000
    Dipole Moment (Debye)
         X       0.8935      Y       0.1263      Z       2.1041
       Tot       2.2894
    Quadrupole Moments (Debye-Ang)
        XX     -50.2679     XY       5.2620     YY     -46.3988
        XZ       0.1445     YZ      -0.8899     ZZ     -48.4729

 Total job time:  157.62s(wall), 155.20s(cpu)
        *  Thank you very much for using Q-Chem.  Have a nice day.  *
