 Q-Chem 5.4, Q-Chem, Inc., Pleasanton, CA (2021)
 Q-Chem 5.4.0 for Intel X86 EM64T Linux

User input:
--------------------------------------------------------------
$molecule
0 1
C	-0.522321	-0.333974	0.019118
C	0.139279	0.221126	1.118518
C	1.199379	1.110626	0.795818
H	-0.143221	-0.015974	2.155218
C	1.368479	1.252426	-0.593382
S	0.199579	0.271726	-1.467682
C	2.032679	1.809826	1.833718
H	1.706579	1.536226	2.855818
H	1.960279	2.914026	1.745318
H	3.107479	1.546726	1.745318
C	-0.522321	-1.774674	0.019118
H	0.171979	-1.774374	-0.808182
H	0.105179	-2.478474	0.545718
H	-1.247921	-2.293574	-0.589682
H	2.095579	1.862626	-1.142482
$end

$rem
JOBTYPE		SP
EXCHANGE	HF
CORRELATION	pRIMP2
BASIS		cc-pvtz
METHOD		rimp2
AUX_BASIS	rimp2-cc-pvtz
SOLVENT_METHOD	PCM
PURECART	11111
SYMMETRY	false
MEM_TOTAL	110000
SCF_CONVERGENCE = 6
THRESH=10
$end

$solvent
dielectric 4.90
$end
--------------------------------------------------------------

             Standard Nuclear Orientation (Angstroms)
    I     Atom           X                Y                Z
 ----------------------------------------------------------------
    1      C      -0.5223210000    -0.3339740000     0.0191180000
    2      C       0.1392790000     0.2211260000     1.1185180000
    3      C       1.1993790000     1.1106260000     0.7958180000
    4      H      -0.1432210000    -0.0159740000     2.1552180000
    5      C       1.3684790000     1.2524260000    -0.5933820000
    6      S       0.1995790000     0.2717260000    -1.4676820000
    7      C       2.0326790000     1.8098260000     1.8337180000
    8      H       1.7065790000     1.5362260000     2.8558180000
    9      H       1.9602790000     2.9140260000     1.7453180000
   10      H       3.1074790000     1.5467260000     1.7453180000
   11      C      -0.5223210000    -1.7746740000     0.0191180000
   12      H       0.1719790000    -1.7743740000    -0.8081820000
   13      H       0.1051790000    -2.4784740000     0.5457180000
   14      H      -1.2479210000    -2.2935740000    -0.5896820000
   15      H       2.0955790000     1.8626260000    -1.1424820000
 ----------------------------------------------------------------

   10    -629.3634856029      6.57e-07  Convergence criterion met
 Total energy in the final basis set =     -629.3634856029
        RIMP2         total energy =      -630.5511653572 a.u.

                    Orbital Energies (a.u.)
 --------------------------------------------------------------

 Alpha MOs
 -- Occupied --
-91.9711 -11.2729 -11.2585 -11.2481 -11.2448 -11.2283 -11.2080  -8.9727
 -6.6536  -6.6527  -6.6524  -1.1715  -1.0576  -0.9944  -0.9437  -0.8784
 -0.7528  -0.7252  -0.6457  -0.5857  -0.5827  -0.5660  -0.5524  -0.5476
 -0.5160  -0.4796  -0.4617  -0.4358  -0.3376  -0.2936

          Ground-State Mulliken Net Atomic Charges

     Atom                 Charge (a.u.)
  ----------------------------------------
      1 C                    -0.040244
      2 C                    -0.190484
      3 C                     0.004912
      4 H                     0.182516
      5 C                    -0.211303
      6 S                    -0.005952
      7 C                    -0.268991
      8 H                     0.101726
      9 H                     0.107700
     10 H                     0.105499
     11 C                    -0.380107
     12 H                     0.136735
     13 H                     0.150248
     14 H                     0.111605
     15 H                     0.196139
  ----------------------------------------
  Sum of atomic charges =     0.000000

                    Cartesian Multipole Moments
 -----------------------------------------------------------------
    Charge (ESU x 10^10)
                -0.0000
    Dipole Moment (Debye)
         X       2.2177      Y       0.0775      Z       1.2349
       Tot       2.5395
    Quadrupole Moments (Debye-Ang)
        XX     -49.7337     XY       3.5859     YY     -48.4150
        XZ       0.2810     YZ       1.0280     ZZ     -48.1568

 Total job time:  163.88s(wall), 161.45s(cpu)
        *  Thank you very much for using Q-Chem.  Have a nice day.  *
