 Q-Chem 5.4, Q-Chem, Inc., Pleasanton, CA (2021)
 Q-Chem 5.4.0 for Intel X86 EM64T Linux

User input:
--------------------------------------------------------------
$molecule
0 1
C	-0.122568	-0.566007	0.016151
C	0.027432	0.284493	1.115551
C	0.267732	1.647393	0.792851
H	-0.036668	-0.078707	2.152251
C	0.306132	1.864693	-0.596349
S	0.041132	0.362093	-1.470649
C	0.456632	2.718593	1.830751
H	0.382732	2.299393	2.852851
H	-0.308568	3.517893	1.742351
H	1.449132	3.207893	1.742351
C	-0.122568	-2.006707	0.016151
H	0.892332	-2.006907	-0.353149
H	-0.402668	-2.710507	-0.753649
H	0.201332	-2.525607	0.906151
H	0.470932	2.799393	-1.145449
$end

$rem
JOBTYPE		SP
EXCHANGE	HF
CORRELATION	pRIMP2
BASIS		cc-pvtz
METHOD		rimp2
AUX_BASIS	rimp2-cc-pvtz
SOLVENT_METHOD	PCM
PURECART	11111
SYMMETRY	false
MEM_TOTAL	110000
SCF_CONVERGENCE = 6
THRESH=10
$end

$solvent
dielectric 4.90
$end
--------------------------------------------------------------

   10    -629.4243276859      6.96e-07  Convergence criterion met
 Total energy in the final basis set =     -629.4243276859
        RIMP2         total energy =      -630.5996030865 a.u.
 Total job time:  158.05s(wall), 156.17s(cpu)
        *  Thank you very much for using Q-Chem.  Have a nice day.  *
 Q-Chem 5.4, Q-Chem, Inc., Pleasanton, CA (2021)
 Q-Chem 5.4.0 for Intel X86 EM64T Linux

User input:
--------------------------------------------------------------
$molecule
0 1
C	-0.122568	-0.566007	0.016151
C	0.027432	0.284493	1.115551
C	0.267732	1.647393	0.792851
H	-0.036668	-0.078707	2.152251
C	0.306132	1.864693	-0.596349
S	0.041132	0.362093	-1.470649
C	0.456632	2.718593	1.830751
H	0.382732	2.299393	2.852851
H	-0.308568	3.517893	1.742351
H	1.449132	3.207893	1.742351
C	-0.122568	-2.006707	0.016151
H	0.892332	-2.006907	-0.353149
H	-0.402668	-2.710507	-0.753649
H	0.201332	-2.525607	0.906151
H	0.470932	2.799393	-1.145449
$end

$rem
JOBTYPE		SP
EXCHANGE	HF
CORRELATION	pRIMP2
BASIS		cc-pvtz
METHOD		rimp2
AUX_BASIS	rimp2-cc-pvtz
SOLVENT_METHOD	PCM
PURECART	11111
SYMMETRY	false
MEM_TOTAL	110000
SCF_CONVERGENCE = 6
THRESH=10
$end

$solvent
dielectric 4.90
$end
--------------------------------------------------------------

             Standard Nuclear Orientation (Angstroms)
    I     Atom           X                Y                Z
 ----------------------------------------------------------------
    1      C      -0.1225680000    -0.5660070000     0.0161510000
    2      C       0.0274320000     0.2844930000     1.1155510000
    3      C       0.2677320000     1.6473930000     0.7928510000
    4      H      -0.0366680000    -0.0787070000     2.1522510000
    5      C       0.3061320000     1.8646930000    -0.5963490000
    6      S       0.0411320000     0.3620930000    -1.4706490000
    7      C       0.4566320000     2.7185930000     1.8307510000
    8      H       0.3827320000     2.2993930000     2.8528510000
    9      H      -0.3085680000     3.5178930000     1.7423510000
   10      H       1.4491320000     3.2078930000     1.7423510000
   11      C      -0.1225680000    -2.0067070000     0.0161510000
   12      H       0.8923320000    -2.0069070000    -0.3531490000
   13      H      -0.4026680000    -2.7105070000    -0.7536490000
   14      H       0.2013320000    -2.5256070000     0.9061510000
   15      H       0.4709320000     2.7993930000    -1.1454490000
 ----------------------------------------------------------------

   10    -629.4243276859      6.96e-07  Convergence criterion met
 Total energy in the final basis set =     -629.4243276859
        RIMP2         total energy =      -630.5996030865 a.u.

                    Orbital Energies (a.u.)
 --------------------------------------------------------------

 Alpha MOs
 -- Occupied --
-91.9770 -11.2849 -11.2504 -11.2469 -11.2265 -11.2247 -11.2221  -8.9771
 -6.6581  -6.6575  -6.6569  -1.1610  -1.0565  -0.9967  -0.9429  -0.8822
 -0.7450  -0.7187  -0.6477  -0.5901  -0.5771  -0.5680  -0.5504  -0.5474
 -0.5072  -0.4937  -0.4659  -0.4551  -0.3393  -0.2901

          Ground-State Mulliken Net Atomic Charges

     Atom                 Charge (a.u.)
  ----------------------------------------
      1 C                     0.065386
      2 C                    -0.316661
      3 C                     0.056143
      4 H                     0.178886
      5 C                    -0.276276
      6 S                    -0.005895
      7 C                    -0.273002
      8 H                     0.101279
      9 H                     0.107407
     10 H                     0.107381
     11 C                    -0.376028
     12 H                     0.141174
     13 H                     0.158068
     14 H                     0.139306
     15 H                     0.192831
  ----------------------------------------
  Sum of atomic charges =     0.000000

                    Cartesian Multipole Moments
 -----------------------------------------------------------------
    Charge (ESU x 10^10)
                -0.0000
    Dipole Moment (Debye)
         X       0.8821      Y      -0.6655      Z       1.2003
       Tot       1.6314
    Quadrupole Moments (Debye-Ang)
        XX     -54.2418     XY       0.1445     YY     -41.9817
        XZ       0.2900     YZ       0.9552     ZZ     -48.6586

 Total job time:  157.77s(wall), 155.06s(cpu)
        *  Thank you very much for using Q-Chem.  Have a nice day.  *
