 Q-Chem 5.4, Q-Chem, Inc., Pleasanton, CA (2021)
 Q-Chem 5.4.0 for Intel X86 EM64T Linux

User input:
--------------------------------------------------------------
$molecule
0 1
C	-0.524321	-0.333972	0.013623
C	0.137279	0.221128	1.113023
C	1.197379	1.110628	0.790323
H	-0.145221	-0.015972	2.149723
C	1.366479	1.252428	-0.598877
S	0.197579	0.271728	-1.473177
C	2.030679	1.809828	1.828223
H	1.704579	1.536228	2.850323
H	1.958279	2.914028	1.739823
H	3.105479	1.546728	1.739823
C	-0.524321	-1.774672	0.013623
H	0.539279	-1.774872	0.201323
H	-0.382021	-2.478472	-0.793077
H	-0.688821	-2.293572	0.946323
H	2.093579	1.862628	-1.147977
$end

$rem
JOBTYPE		SP
EXCHANGE	HF
CORRELATION	pRIMP2
BASIS		cc-pvtz
METHOD		rimp2
AUX_BASIS	rimp2-cc-pvtz
SOLVENT_METHOD	PCM
PURECART	11111
SYMMETRY	false
MEM_TOTAL	110000
SCF_CONVERGENCE = 6
THRESH=10
$end

$solvent
dielectric 4.90
$end
--------------------------------------------------------------

             Standard Nuclear Orientation (Angstroms)
    I     Atom           X                Y                Z
 ----------------------------------------------------------------
    1      C      -0.5243210000    -0.3339720000     0.0136230000
    2      C       0.1372790000     0.2211280000     1.1130230000
    3      C       1.1973790000     1.1106280000     0.7903230000
    4      H      -0.1452210000    -0.0159720000     2.1497230000
    5      C       1.3664790000     1.2524280000    -0.5988770000
    6      S       0.1975790000     0.2717280000    -1.4731770000
    7      C       2.0306790000     1.8098280000     1.8282230000
    8      H       1.7045790000     1.5362280000     2.8503230000
    9      H       1.9582790000     2.9140280000     1.7398230000
   10      H       3.1054790000     1.5467280000     1.7398230000
   11      C      -0.5243210000    -1.7746720000     0.0136230000
   12      H       0.5392790000    -1.7748720000     0.2013230000
   13      H      -0.3820210000    -2.4784720000    -0.7930770000
   14      H      -0.6888210000    -2.2935720000     0.9463230000
   15      H       2.0935790000     1.8626280000    -1.1479770000
 ----------------------------------------------------------------

   10    -629.3721380526      7.01e-07  Convergence criterion met
 Total energy in the final basis set =     -629.3721380526
        RIMP2         total energy =      -630.5603230876 a.u.

                    Orbital Energies (a.u.)
 --------------------------------------------------------------

 Alpha MOs
 -- Occupied --
-91.9772 -11.2681 -11.2674 -11.2504 -11.2353 -11.2285 -11.2160  -8.9776
 -6.6585  -6.6578  -6.6574  -1.1722  -1.0578  -0.9985  -0.9370  -0.8818
 -0.7480  -0.7263  -0.6448  -0.5888  -0.5832  -0.5696  -0.5531  -0.5459
 -0.5109  -0.4888  -0.4596  -0.4478  -0.3379  -0.2870

          Ground-State Mulliken Net Atomic Charges

     Atom                 Charge (a.u.)
  ----------------------------------------
      1 C                    -0.030169
      2 C                    -0.206707
      3 C                     0.013404
      4 H                     0.178455
      5 C                    -0.237582
      6 S                     0.013652
      7 C                    -0.267897
      8 H                     0.102303
      9 H                     0.107568
     10 H                     0.105026
     11 C                    -0.372545
     12 H                     0.131102
     13 H                     0.149584
     14 H                     0.118296
     15 H                     0.195510
  ----------------------------------------
  Sum of atomic charges =     0.000000

                    Cartesian Multipole Moments
 -----------------------------------------------------------------
    Charge (ESU x 10^10)
                -0.0000
    Dipole Moment (Debye)
         X       2.0955      Y      -0.2551      Z       1.6336
       Tot       2.6692
    Quadrupole Moments (Debye-Ang)
        XX     -50.3036     XY       3.7675     YY     -47.9684
        XZ      -0.0679     YZ      -0.0963     ZZ     -48.0070

 Total job time:  163.39s(wall), 161.58s(cpu)
        *  Thank you very much for using Q-Chem.  Have a nice day.  *
