 Q-Chem 5.4, Q-Chem, Inc., Pleasanton, CA (2021)
 Q-Chem 5.4.0 for Intel X86 EM64T Linux

User input:
--------------------------------------------------------------
$molecule
0 1
C	-0.235570	-0.535397	0.011685
C	0.059830	0.276103	1.111085
C	0.533130	1.576503	0.788385
H	-0.066270	-0.070397	2.147785
C	0.608630	1.783903	-0.600815
S	0.086730	0.350203	-1.475115
C	0.905230	2.598703	1.826285
H	0.759630	2.198703	2.848385
H	0.290430	3.518703	1.737885
H	1.967630	2.908303	1.737885
C	-0.235570	-1.976097	0.011685
H	0.458530	-1.975797	0.839085
H	-0.863170	-2.679897	0.538185
H	0.489930	-2.494997	-0.597115
H	0.933330	2.675903	-1.149915
$end

$rem
JOBTYPE		SP
EXCHANGE	HF
CORRELATION	pRIMP2
BASIS		cc-pvtz
METHOD		rimp2
AUX_BASIS	rimp2-cc-pvtz
SOLVENT_METHOD	PCM
PURECART	11111
SYMMETRY	false
MEM_TOTAL	110000
SCF_CONVERGENCE = 6
THRESH=10
$end

$solvent
dielectric 4.90
$end
--------------------------------------------------------------

   10    -629.4146977165      5.38e-07  Convergence criterion met
 Total energy in the final basis set =     -629.4146977165
        RIMP2         total energy =      -630.5937910021 a.u.
 Total job time:  160.41s(wall), 158.31s(cpu)
        *  Thank you very much for using Q-Chem.  Have a nice day.  *
 Q-Chem 5.4, Q-Chem, Inc., Pleasanton, CA (2021)
 Q-Chem 5.4.0 for Intel X86 EM64T Linux

User input:
--------------------------------------------------------------
$molecule
0 1
C	-0.235570	-0.535397	0.011685
C	0.059830	0.276103	1.111085
C	0.533130	1.576503	0.788385
H	-0.066270	-0.070397	2.147785
C	0.608630	1.783903	-0.600815
S	0.086730	0.350203	-1.475115
C	0.905230	2.598703	1.826285
H	0.759630	2.198703	2.848385
H	0.290430	3.518703	1.737885
H	1.967630	2.908303	1.737885
C	-0.235570	-1.976097	0.011685
H	0.458530	-1.975797	0.839085
H	-0.863170	-2.679897	0.538185
H	0.489930	-2.494997	-0.597115
H	0.933330	2.675903	-1.149915
$end

$rem
JOBTYPE		SP
EXCHANGE	HF
CORRELATION	pRIMP2
BASIS		cc-pvtz
METHOD		rimp2
AUX_BASIS	rimp2-cc-pvtz
SOLVENT_METHOD	PCM
PURECART	11111
SYMMETRY	false
MEM_TOTAL	110000
SCF_CONVERGENCE = 6
THRESH=10
$end

$solvent
dielectric 4.90
$end
--------------------------------------------------------------

             Standard Nuclear Orientation (Angstroms)
    I     Atom           X                Y                Z
 ----------------------------------------------------------------
    1      C      -0.2355700000    -0.5353970000     0.0116850000
    2      C       0.0598300000     0.2761030000     1.1110850000
    3      C       0.5331300000     1.5765030000     0.7883850000
    4      H      -0.0662700000    -0.0703970000     2.1477850000
    5      C       0.6086300000     1.7839030000    -0.6008150000
    6      S       0.0867300000     0.3502030000    -1.4751150000
    7      C       0.9052300000     2.5987030000     1.8262850000
    8      H       0.7596300000     2.1987030000     2.8483850000
    9      H       0.2904300000     3.5187030000     1.7378850000
   10      H       1.9676300000     2.9083030000     1.7378850000
   11      C      -0.2355700000    -1.9760970000     0.0116850000
   12      H       0.4585300000    -1.9757970000     0.8390850000
   13      H      -0.8631700000    -2.6798970000     0.5381850000
   14      H       0.4899300000    -2.4949970000    -0.5971150000
   15      H       0.9333300000     2.6759030000    -1.1499150000
 ----------------------------------------------------------------

   10    -629.4146977165      5.38e-07  Convergence criterion met
 Total energy in the final basis set =     -629.4146977165
        RIMP2         total energy =      -630.5937910021 a.u.

                    Orbital Energies (a.u.)
 --------------------------------------------------------------

 Alpha MOs
 -- Occupied --
-91.9779 -11.2791 -11.2544 -11.2473 -11.2291 -11.2271 -11.2165  -8.9777
 -6.6586  -6.6580  -6.6575  -1.1621  -1.0548  -0.9987  -0.9391  -0.8833
 -0.7427  -0.7227  -0.6482  -0.5902  -0.5750  -0.5675  -0.5584  -0.5431
 -0.5095  -0.4835  -0.4679  -0.4483  -0.3363  -0.2956

          Ground-State Mulliken Net Atomic Charges

     Atom                 Charge (a.u.)
  ----------------------------------------
      1 C                     0.045521
      2 C                    -0.267588
      3 C                     0.034260
      4 H                     0.175587
      5 C                    -0.260949
      6 S                    -0.000725
      7 C                    -0.272316
      8 H                     0.101253
      9 H                     0.107340
     10 H                     0.106646
     11 C                    -0.387578
     12 H                     0.139958
     13 H                     0.148854
     14 H                     0.137171
     15 H                     0.192565
  ----------------------------------------
  Sum of atomic charges =     0.000000

                    Cartesian Multipole Moments
 -----------------------------------------------------------------
    Charge (ESU x 10^10)
                -0.0000
    Dipole Moment (Debye)
         X       0.9241      Y      -0.3198      Z       1.9662
       Tot       2.1959
    Quadrupole Moments (Debye-Ang)
        XX     -53.2628     XY       1.9058     YY     -43.4001
        XZ      -0.2917     YZ      -0.8911     ZZ     -48.6172

 Total job time:  156.68s(wall), 155.79s(cpu)
        *  Thank you very much for using Q-Chem.  Have a nice day.  *
