 Q-Chem 5.4, Q-Chem, Inc., Pleasanton, CA (2021)
 Q-Chem 5.4.0 for Intel X86 EM64T Linux

User input:
--------------------------------------------------------------
$molecule
0 1
C	-0.440719	-0.417597	0.016439
C	0.114381	0.243903	1.115839
C	1.003981	1.304103	0.793139
H	-0.122619	-0.038597	2.152539
C	1.145881	1.473103	-0.596061
S	0.165081	0.304303	-1.470361
C	1.703181	2.137303	1.831039
H	1.429581	1.811303	2.853139
H	1.440181	3.212103	1.742639
H	2.807381	2.064903	1.742639
C	-0.440719	-1.858297	0.016439
H	0.622881	-1.857997	-0.170961
H	-0.298519	-2.562097	0.823239
H	-0.605219	-2.377197	-0.916261
H	1.755981	2.200203	-1.145161
$end

$rem
JOBTYPE		SP
EXCHANGE	HF
CORRELATION	pRIMP2
BASIS		cc-pvtz
METHOD		rimp2
AUX_BASIS	rimp2-cc-pvtz
SOLVENT_METHOD	PCM
PURECART	11111
SYMMETRY	false
MEM_TOTAL	110000
SCF_CONVERGENCE = 6
THRESH=10
$end

$solvent
dielectric 4.90
$end
--------------------------------------------------------------

             Standard Nuclear Orientation (Angstroms)
    I     Atom           X                Y                Z
 ----------------------------------------------------------------
    1      C      -0.4407190000    -0.4175970000     0.0164390000
    2      C       0.1143810000     0.2439030000     1.1158390000
    3      C       1.0039810000     1.3041030000     0.7931390000
    4      H      -0.1226190000    -0.0385970000     2.1525390000
    5      C       1.1458810000     1.4731030000    -0.5960610000
    6      S       0.1650810000     0.3043030000    -1.4703610000
    7      C       1.7031810000     2.1373030000     1.8310390000
    8      H       1.4295810000     1.8113030000     2.8531390000
    9      H       1.4401810000     3.2121030000     1.7426390000
   10      H       2.8073810000     2.0649030000     1.7426390000
   11      C      -0.4407190000    -1.8582970000     0.0164390000
   12      H       0.6228810000    -1.8579970000    -0.1709610000
   13      H      -0.2985190000    -2.5620970000     0.8232390000
   14      H      -0.6052190000    -2.3771970000    -0.9162610000
   15      H       1.7559810000     2.2002030000    -1.1451610000
 ----------------------------------------------------------------

   10    -629.3939171389      6.17e-07  Convergence criterion met
 Total energy in the final basis set =     -629.3939171389
        RIMP2         total energy =      -630.5762871851 a.u.

                    Orbital Energies (a.u.)
 --------------------------------------------------------------

 Alpha MOs
 -- Occupied --
-91.9758 -11.2752 -11.2603 -11.2487 -11.2304 -11.2275 -11.2191  -8.9764
 -6.6573  -6.6567  -6.6561  -1.1676  -1.0574  -0.9959  -0.9410  -0.8809
 -0.7474  -0.7224  -0.6477  -0.5856  -0.5816  -0.5650  -0.5534  -0.5466
 -0.5083  -0.4943  -0.4609  -0.4517  -0.3398  -0.2878

          Ground-State Mulliken Net Atomic Charges

     Atom                 Charge (a.u.)
  ----------------------------------------
      1 C                     0.022668
      2 C                    -0.280064
      3 C                     0.047390
      4 H                     0.176423
      5 C                    -0.257057
      6 S                    -0.000254
      7 C                    -0.269867
      8 H                     0.101873
      9 H                     0.107871
     10 H                     0.106053
     11 C                    -0.368164
     12 H                     0.141174
     13 H                     0.152567
     14 H                     0.125286
     15 H                     0.194101
  ----------------------------------------
  Sum of atomic charges =     0.000000

                    Cartesian Multipole Moments
 -----------------------------------------------------------------
    Charge (ESU x 10^10)
                -0.0000
    Dipole Moment (Debye)
         X       1.6928      Y      -0.4148      Z       1.4355
       Tot       2.2579
    Quadrupole Moments (Debye-Ang)
        XX     -51.5954     XY       3.3815     YY     -45.9640
        XZ       0.2327     YZ       0.1468     ZZ     -48.3792

 Total job time:  161.38s(wall), 159.86s(cpu)
        *  Thank you very much for using Q-Chem.  Have a nice day.  *
