 Q-Chem 5.4, Q-Chem, Inc., Pleasanton, CA (2021)
 Q-Chem 5.4.0 for Intel X86 EM64T Linux

User input:
--------------------------------------------------------------
$molecule
0 1
C	-0.061824	-0.573729	0.019118
C	0.013476	0.286571	1.118518
C	0.134076	1.665271	0.795818
H	-0.018624	-0.080829	2.155218
C	0.153376	1.885071	-0.593382
S	0.020376	0.365071	-1.467682
C	0.228976	2.748871	1.833718
H	0.191876	2.324771	2.855818
H	-0.603024	3.478371	1.745318
H	1.174976	3.322871	1.745318
C	-0.061824	-2.014429	0.019118
H	0.632476	-2.014129	-0.808182
H	0.565676	-2.718229	0.545718
H	-0.787424	-2.533329	-0.589682
H	0.236076	2.830671	-1.142482
$end

$rem
JOBTYPE		SP
EXCHANGE	HF
CORRELATION	pRIMP2
BASIS		cc-pvtz
METHOD		rimp2
AUX_BASIS	rimp2-cc-pvtz
SOLVENT_METHOD	PCM
PURECART	11111
SYMMETRY	false
MEM_TOTAL	110000
SCF_CONVERGENCE = 6
THRESH=10
$end

$solvent
dielectric 4.90
$end
--------------------------------------------------------------

             Standard Nuclear Orientation (Angstroms)
    I     Atom           X                Y                Z
 ----------------------------------------------------------------
    1      C      -0.0618240000    -0.5737290000     0.0191180000
    2      C       0.0134760000     0.2865710000     1.1185180000
    3      C       0.1340760000     1.6652710000     0.7958180000
    4      H      -0.0186240000    -0.0808290000     2.1552180000
    5      C       0.1533760000     1.8850710000    -0.5933820000
    6      S       0.0203760000     0.3650710000    -1.4676820000
    7      C       0.2289760000     2.7488710000     1.8337180000
    8      H       0.1918760000     2.3247710000     2.8558180000
    9      H      -0.6030240000     3.4783710000     1.7453180000
   10      H       1.1749760000     3.3228710000     1.7453180000
   11      C      -0.0618240000    -2.0144290000     0.0191180000
   12      H       0.6324760000    -2.0141290000    -0.8081820000
   13      H       0.5656760000    -2.7182290000     0.5457180000
   14      H      -0.7874240000    -2.5333290000    -0.5896820000
   15      H       0.2360760000     2.8306710000    -1.1424820000
 ----------------------------------------------------------------

   10    -629.4218289607      6.29e-07  Convergence criterion met
 Total energy in the final basis set =     -629.4218289607
        RIMP2         total energy =      -630.5982231319 a.u.

                    Orbital Energies (a.u.)
 --------------------------------------------------------------

 Alpha MOs
 -- Occupied --
-91.9790 -11.2794 -11.2546 -11.2468 -11.2268 -11.2266 -11.2182  -8.9790
 -6.6599  -6.6594  -6.6588  -1.1608  -1.0557  -0.9955  -0.9454  -0.8816
 -0.7466  -0.7183  -0.6489  -0.5899  -0.5758  -0.5651  -0.5534  -0.5474
 -0.5084  -0.4891  -0.4650  -0.4505  -0.3393  -0.2966

          Ground-State Mulliken Net Atomic Charges

     Atom                 Charge (a.u.)
  ----------------------------------------
      1 C                     0.058676
      2 C                    -0.287553
      3 C                     0.045740
      4 H                     0.180613
      5 C                    -0.263727
      6 S                    -0.003605
      7 C                    -0.273241
      8 H                     0.101573
      9 H                     0.107254
     10 H                     0.107063
     11 C                    -0.375395
     12 H                     0.122715
     13 H                     0.155727
     14 H                     0.129714
     15 H                     0.194446
  ----------------------------------------
  Sum of atomic charges =     0.000000

                    Cartesian Multipole Moments
 -----------------------------------------------------------------
    Charge (ESU x 10^10)
                -0.0000
    Dipole Moment (Debye)
         X       0.5486      Y      -0.2700      Z       0.9377
       Tot       1.1195
    Quadrupole Moments (Debye-Ang)
        XX     -53.9770     XY      -0.2829     YY     -42.0263
        XZ       0.3509     YZ       1.2295     ZZ     -48.7554

 Total job time:  158.00s(wall), 157.24s(cpu)
        *  Thank you very much for using Q-Chem.  Have a nice day.  *
