 Q-Chem 5.4, Q-Chem, Inc., Pleasanton, CA (2021)
 Q-Chem 5.4.0 for Intel X86 EM64T Linux

User input:
--------------------------------------------------------------
$molecule
0 1
C	-0.000294	-0.576309	0.010154
C	-0.000294	0.287291	1.109554
C	-0.000194	1.671191	0.786854
H	-0.000294	-0.081509	2.146254
C	-0.000194	1.891891	-0.602346
S	-0.000294	0.366091	-1.476646
C	-0.000194	2.758991	1.824754
H	-0.000194	2.333291	2.846854
H	-0.892594	3.413291	1.736354
H	0.892206	3.413191	1.736354
C	-0.000294	-2.017009	0.010154
H	0.187106	-2.017209	1.073754
H	0.806506	-2.720809	-0.132046
H	-0.932994	-2.535909	0.174654
H	-0.000194	2.841091	-1.151446
$end

$rem
JOBTYPE		SP
EXCHANGE	HF
CORRELATION	pRIMP2
BASIS		cc-pvtz
METHOD		rimp2
AUX_BASIS	rimp2-cc-pvtz
SOLVENT_METHOD	PCM
PURECART	11111
SYMMETRY	false
MEM_TOTAL	110000
SCF_CONVERGENCE = 6
THRESH=10
$end

$solvent
dielectric 4.90
$end
--------------------------------------------------------------

             Standard Nuclear Orientation (Angstroms)
    I     Atom           X                Y                Z
 ----------------------------------------------------------------
    1      C      -0.0002940000    -0.5763090000     0.0101540000
    2      C      -0.0002940000     0.2872910000     1.1095540000
    3      C      -0.0001940000     1.6711910000     0.7868540000
    4      H      -0.0002940000    -0.0815090000     2.1462540000
    5      C      -0.0001940000     1.8918910000    -0.6023460000
    6      S      -0.0002940000     0.3660910000    -1.4766460000
    7      C      -0.0001940000     2.7589910000     1.8247540000
    8      H      -0.0001940000     2.3332910000     2.8468540000
    9      H      -0.8925940000     3.4132910000     1.7363540000
   10      H       0.8922060000     3.4131910000     1.7363540000
   11      C      -0.0002940000    -2.0170090000     0.0101540000
   12      H       0.1871060000    -2.0172090000     1.0737540000
   13      H       0.8065060000    -2.7208090000    -0.1320460000
   14      H      -0.9329940000    -2.5359090000     0.1746540000
   15      H      -0.0001940000     2.8410910000    -1.1514460000
 ----------------------------------------------------------------

   10    -629.4249908033      4.97e-07  Convergence criterion met
 Total energy in the final basis set =     -629.4249908033
        RIMP2         total energy =      -630.6028235023 a.u.

                    Orbital Energies (a.u.)
 --------------------------------------------------------------

 Alpha MOs
 -- Occupied --
-91.9749 -11.2781 -11.2569 -11.2470 -11.2340 -11.2274 -11.2166  -8.9751
 -6.6560  -6.6554  -6.6549  -1.1610  -1.0540  -0.9997  -0.9397  -0.8845
 -0.7422  -0.7240  -0.6488  -0.5919  -0.5777  -0.5667  -0.5594  -0.5420
 -0.5103  -0.4852  -0.4679  -0.4378  -0.3379  -0.3037

          Ground-State Mulliken Net Atomic Charges

     Atom                 Charge (a.u.)
  ----------------------------------------
      1 C                     0.068098
      2 C                    -0.270497
      3 C                     0.030237
      4 H                     0.177245
      5 C                    -0.251497
      6 S                    -0.008036
      7 C                    -0.273862
      8 H                     0.101118
      9 H                     0.107270
     10 H                     0.107210
     11 C                    -0.374637
     12 H                     0.121115
     13 H                     0.147890
     14 H                     0.125182
     15 H                     0.193163
  ----------------------------------------
  Sum of atomic charges =     0.000000

                    Cartesian Multipole Moments
 -----------------------------------------------------------------
    Charge (ESU x 10^10)
                -0.0000
    Dipole Moment (Debye)
         X       0.0966      Y      -0.0972      Z       2.1430
       Tot       2.1473
    Quadrupole Moments (Debye-Ang)
        XX     -53.7056     XY      -0.3834     YY     -42.1421
        XZ      -0.1075     YZ      -1.0506     ZZ     -48.9640

 Total job time:  157.56s(wall), 154.86s(cpu)
        *  Thank you very much for using Q-Chem.  Have a nice day.  *
