 Q-Chem 5.4, Q-Chem, Inc., Pleasanton, CA (2021)
 Q-Chem 5.4.0 for Intel X86 EM64T Linux

User input:
--------------------------------------------------------------
$molecule
0 1
C	-0.440918	-0.417597	0.014755
C	0.114182	0.243903	1.114155
C	1.003782	1.304103	0.791455
H	-0.122818	-0.038597	2.150855
C	1.145682	1.473103	-0.597745
S	0.164882	0.304303	-1.472045
C	1.702982	2.137303	1.829355
H	1.429382	1.811303	2.851455
H	1.439982	3.212103	1.740955
H	2.807182	2.064903	1.740955
C	-0.440918	-1.858297	0.014755
H	0.622682	-1.857997	0.202455
H	-0.583218	-2.562097	0.821455
H	-0.276418	-2.377197	-0.917945
H	1.755782	2.200203	-1.146845
$end

$rem
JOBTYPE		SP
EXCHANGE	HF
CORRELATION	pRIMP2
BASIS		cc-pvtz
METHOD		rimp2
AUX_BASIS	rimp2-cc-pvtz
SOLVENT_METHOD	PCM
PURECART	11111
SYMMETRY	false
MEM_TOTAL	110000
SCF_CONVERGENCE = 6
THRESH=10
$end

$solvent
dielectric 4.90
$end
--------------------------------------------------------------

             Standard Nuclear Orientation (Angstroms)
    I     Atom           X                Y                Z
 ----------------------------------------------------------------
    1      C      -0.4409180000    -0.4175970000     0.0147550000
    2      C       0.1141820000     0.2439030000     1.1141550000
    3      C       1.0037820000     1.3041030000     0.7914550000
    4      H      -0.1228180000    -0.0385970000     2.1508550000
    5      C       1.1456820000     1.4731030000    -0.5977450000
    6      S       0.1648820000     0.3043030000    -1.4720450000
    7      C       1.7029820000     2.1373030000     1.8293550000
    8      H       1.4293820000     1.8113030000     2.8514550000
    9      H       1.4399820000     3.2121030000     1.7409550000
   10      H       2.8071820000     2.0649030000     1.7409550000
   11      C      -0.4409180000    -1.8582970000     0.0147550000
   12      H       0.6226820000    -1.8579970000     0.2024550000
   13      H      -0.5832180000    -2.5620970000     0.8214550000
   14      H      -0.2764180000    -2.3771970000    -0.9179450000
   15      H       1.7557820000     2.2002030000    -1.1468450000
 ----------------------------------------------------------------

   10    -629.3919885103      5.72e-07  Convergence criterion met
 Total energy in the final basis set =     -629.3919885103
        RIMP2         total energy =      -630.5752771016 a.u.

                    Orbital Energies (a.u.)
 --------------------------------------------------------------

 Alpha MOs
 -- Occupied --
-91.9785 -11.2757 -11.2589 -11.2488 -11.2284 -11.2275 -11.2183  -8.9785
 -6.6595  -6.6589  -6.6583  -1.1674  -1.0570  -0.9971  -0.9391  -0.8815
 -0.7461  -0.7228  -0.6474  -0.5876  -0.5786  -0.5664  -0.5546  -0.5458
 -0.5080  -0.4910  -0.4596  -0.4568  -0.3379  -0.2870

          Ground-State Mulliken Net Atomic Charges

     Atom                 Charge (a.u.)
  ----------------------------------------
      1 C                     0.007566
      2 C                    -0.255943
      3 C                     0.038286
      4 H                     0.174672
      5 C                    -0.261012
      6 S                     0.009955
      7 C                    -0.269794
      8 H                     0.101895
      9 H                     0.107726
     10 H                     0.105501
     11 C                    -0.375182
     12 H                     0.144485
     13 H                     0.147080
     14 H                     0.130437
     15 H                     0.194328
  ----------------------------------------
  Sum of atomic charges =     0.000000

                    Cartesian Multipole Moments
 -----------------------------------------------------------------
    Charge (ESU x 10^10)
                -0.0000
    Dipole Moment (Debye)
         X       1.6578      Y      -0.4372      Z       1.5789
       Tot       2.3307
    Quadrupole Moments (Debye-Ang)
        XX     -51.6516     XY       3.3795     YY     -46.0882
        XZ       0.0294     YZ      -0.3109     ZZ     -48.2443

 Total job time:  161.64s(wall), 160.21s(cpu)
        *  Thank you very much for using Q-Chem.  Have a nice day.  *
