 Q-Chem 5.4, Q-Chem, Inc., Pleasanton, CA (2021)
 Q-Chem 5.4.0 for Intel X86 EM64T Linux

User input:
--------------------------------------------------------------
$molecule
0 1
C	-0.521571	-0.333974	0.019521
C	0.140029	0.221126	1.118921
C	1.200129	1.110626	0.796221
H	-0.142471	-0.015974	2.155621
C	1.369229	1.252426	-0.592979
S	0.200329	0.271726	-1.467279
C	2.033429	1.809826	1.834121
H	1.707329	1.536226	2.856221
H	1.961029	2.914026	1.745721
H	3.108229	1.546726	1.745721
C	-0.521571	-1.774674	0.019521
H	0.018529	-1.774374	-0.915679
H	0.187829	-2.478474	0.429121
H	-1.341771	-2.293574	-0.454079
H	2.096329	1.862626	-1.142079
$end

$rem
JOBTYPE		SP
EXCHANGE	HF
CORRELATION	pRIMP2
BASIS		cc-pvtz
METHOD		rimp2
AUX_BASIS	rimp2-cc-pvtz
SOLVENT_METHOD	PCM
PURECART	11111
SYMMETRY	false
MEM_TOTAL	110000
SCF_CONVERGENCE = 6
THRESH=10
$end

$solvent
dielectric 4.90
$end
--------------------------------------------------------------

             Standard Nuclear Orientation (Angstroms)
    I     Atom           X                Y                Z
 ----------------------------------------------------------------
    1      C      -0.5215710000    -0.3339740000     0.0195210000
    2      C       0.1400290000     0.2211260000     1.1189210000
    3      C       1.2001290000     1.1106260000     0.7962210000
    4      H      -0.1424710000    -0.0159740000     2.1556210000
    5      C       1.3692290000     1.2524260000    -0.5929790000
    6      S       0.2003290000     0.2717260000    -1.4672790000
    7      C       2.0334290000     1.8098260000     1.8341210000
    8      H       1.7073290000     1.5362260000     2.8562210000
    9      H       1.9610290000     2.9140260000     1.7457210000
   10      H       3.1082290000     1.5467260000     1.7457210000
   11      C      -0.5215710000    -1.7746740000     0.0195210000
   12      H       0.0185290000    -1.7743740000    -0.9156790000
   13      H       0.1878290000    -2.4784740000     0.4291210000
   14      H      -1.3417710000    -2.2935740000    -0.4540790000
   15      H       2.0963290000     1.8626260000    -1.1420790000
 ----------------------------------------------------------------

   10    -629.3617376145      6.89e-07  Convergence criterion met
 Total energy in the final basis set =     -629.3617376145
        RIMP2         total energy =      -630.5498186410 a.u.

                    Orbital Energies (a.u.)
 --------------------------------------------------------------

 Alpha MOs
 -- Occupied --
-91.9718 -11.2741 -11.2557 -11.2478 -11.2459 -11.2282 -11.2065  -8.9734
 -6.6542  -6.6533  -6.6530  -1.1711  -1.0573  -0.9943  -0.9443  -0.8782
 -0.7534  -0.7252  -0.6455  -0.5860  -0.5819  -0.5668  -0.5519  -0.5477
 -0.5168  -0.4743  -0.4625  -0.4354  -0.3355  -0.2969

          Ground-State Mulliken Net Atomic Charges

     Atom                 Charge (a.u.)
  ----------------------------------------
      1 C                    -0.050842
      2 C                    -0.179582
      3 C                     0.005160
      4 H                     0.182382
      5 C                    -0.209023
      6 S                    -0.003768
      7 C                    -0.268986
      8 H                     0.101759
      9 H                     0.107455
     10 H                     0.105086
     11 C                    -0.379363
     12 H                     0.134707
     13 H                     0.148709
     14 H                     0.109711
     15 H                     0.196595
  ----------------------------------------
  Sum of atomic charges =     0.000000

                    Cartesian Multipole Moments
 -----------------------------------------------------------------
    Charge (ESU x 10^10)
                -0.0000
    Dipole Moment (Debye)
         X       2.1810      Y       0.1815      Z       1.1540
       Tot       2.4741
    Quadrupole Moments (Debye-Ang)
        XX     -49.5789     XY       3.6830     YY     -48.5228
        XZ       0.2653     YZ       1.1636     ZZ     -48.1225

 Total job time:  162.41s(wall), 160.39s(cpu)
        *  Thank you very much for using Q-Chem.  Have a nice day.  *
