 Q-Chem 5.4, Q-Chem, Inc., Pleasanton, CA (2021)
 Q-Chem 5.4.0 for Intel X86 EM64T Linux

User input:
--------------------------------------------------------------
$molecule
0 1
C	-0.515729	-0.333974	0.012109
C	0.145871	0.221126	1.111509
C	1.205971	1.110626	0.788809
H	-0.136629	-0.015974	2.148209
C	1.375071	1.252426	-0.600391
S	0.206171	0.271726	-1.474691
C	2.039271	1.809826	1.826709
H	1.713171	1.536226	2.848809
H	1.966871	2.914026	1.738309
H	3.114071	1.546726	1.738309
C	-0.515729	-1.774674	0.012109
H	-1.451129	-1.774374	0.552009
H	-0.925229	-2.478474	-0.697391
H	-0.042129	-2.293574	0.832309
H	2.102171	1.862626	-1.149491
$end

$rem
JOBTYPE		SP
EXCHANGE	HF
CORRELATION	pRIMP2
BASIS		cc-pvtz
METHOD		rimp2
AUX_BASIS	rimp2-cc-pvtz
SOLVENT_METHOD	PCM
PURECART	11111
SYMMETRY	false
MEM_TOTAL	110000
SCF_CONVERGENCE = 6
THRESH=10
$end

$solvent
dielectric 4.90
$end
--------------------------------------------------------------

             Standard Nuclear Orientation (Angstroms)
    I     Atom           X                Y                Z
 ----------------------------------------------------------------
    1      C      -0.5157290000    -0.3339740000     0.0121090000
    2      C       0.1458710000     0.2211260000     1.1115090000
    3      C       1.2059710000     1.1106260000     0.7888090000
    4      H      -0.1366290000    -0.0159740000     2.1482090000
    5      C       1.3750710000     1.2524260000    -0.6003910000
    6      S       0.2061710000     0.2717260000    -1.4746910000
    7      C       2.0392710000     1.8098260000     1.8267090000
    8      H       1.7131710000     1.5362260000     2.8488090000
    9      H       1.9668710000     2.9140260000     1.7383090000
   10      H       3.1140710000     1.5467260000     1.7383090000
   11      C      -0.5157290000    -1.7746740000     0.0121090000
   12      H      -1.4511290000    -1.7743740000     0.5520090000
   13      H      -0.9252290000    -2.4784740000    -0.6973910000
   14      H      -0.0421290000    -2.2935740000     0.8323090000
   15      H       2.1021710000     1.8626260000    -1.1494910000
 ----------------------------------------------------------------

   11    -629.3663892374      4.18e-07  Convergence criterion met
 Total energy in the final basis set =     -629.3663892374
        RIMP2         total energy =      -630.5560001817 a.u.

                    Orbital Energies (a.u.)
 --------------------------------------------------------------

 Alpha MOs
 -- Occupied --
-91.9717 -11.2703 -11.2570 -11.2489 -11.2440 -11.2283 -11.2090  -8.9726
 -6.6534  -6.6525  -6.6522  -1.1674  -1.0543  -0.9981  -0.9377  -0.8832
 -0.7460  -0.7272  -0.6425  -0.5865  -0.5813  -0.5655  -0.5549  -0.5430
 -0.5161  -0.4912  -0.4595  -0.4260  -0.3362  -0.2893

          Ground-State Mulliken Net Atomic Charges

     Atom                 Charge (a.u.)
  ----------------------------------------
      1 C                    -0.039152
      2 C                    -0.202781
      3 C                     0.011832
      4 H                     0.180762
      5 C                    -0.213028
      6 S                     0.007138
      7 C                    -0.268946
      8 H                     0.101505
      9 H                     0.106951
     10 H                     0.105686
     11 C                    -0.393925
     12 H                     0.125008
     13 H                     0.150280
     14 H                     0.135451
     15 H                     0.193221
  ----------------------------------------
  Sum of atomic charges =     0.000000

                    Cartesian Multipole Moments
 -----------------------------------------------------------------
    Charge (ESU x 10^10)
                -0.0000
    Dipole Moment (Debye)
         X       1.1450      Y      -0.0198      Z       1.9810
       Tot       2.2882
    Quadrupole Moments (Debye-Ang)
        XX     -48.9564     XY       5.7472     YY     -48.2101
        XZ       0.1568     YZ      -0.2863     ZZ     -48.0906

 Total job time:  170.43s(wall), 169.51s(cpu)
        *  Thank you very much for using Q-Chem.  Have a nice day.  *
