 Q-Chem 5.4, Q-Chem, Inc., Pleasanton, CA (2021)
 Q-Chem 5.4.0 for Intel X86 EM64T Linux

User input:
--------------------------------------------------------------
$molecule
0 1
C	-0.289374	-0.512746	0.019118
C	0.075626	0.269954	1.118518
C	0.660526	1.524154	0.795818
H	-0.080274	-0.064346	2.155218
C	0.753826	1.724154	-0.593382
S	0.108926	0.341354	-1.467682
C	1.120226	2.509954	1.833718
H	0.940326	2.124254	2.855818
H	0.587926	3.480154	1.745318
H	2.205526	2.725854	1.745318
C	-0.289374	-1.953446	0.019118
H	0.404926	-1.953146	-0.808182
H	0.338126	-2.657246	0.545718
H	-1.014974	-2.472346	-0.589682
H	1.154926	2.584454	-1.142482
$end

$rem
JOBTYPE		SP
EXCHANGE	HF
CORRELATION	pRIMP2
BASIS		cc-pvtz
METHOD		rimp2
AUX_BASIS	rimp2-cc-pvtz
SOLVENT_METHOD	PCM
PURECART	11111
SYMMETRY	false
MEM_TOTAL	110000
SCF_CONVERGENCE = 6
THRESH=10
$end

$solvent
dielectric 4.90
$end
--------------------------------------------------------------

             Standard Nuclear Orientation (Angstroms)
    I     Atom           X                Y                Z
 ----------------------------------------------------------------
    1      C      -0.2893740000    -0.5127460000     0.0191180000
    2      C       0.0756260000     0.2699540000     1.1185180000
    3      C       0.6605260000     1.5241540000     0.7958180000
    4      H      -0.0802740000    -0.0643460000     2.1552180000
    5      C       0.7538260000     1.7241540000    -0.5933820000
    6      S       0.1089260000     0.3413540000    -1.4676820000
    7      C       1.1202260000     2.5099540000     1.8337180000
    8      H       0.9403260000     2.1242540000     2.8558180000
    9      H       0.5879260000     3.4801540000     1.7453180000
   10      H       2.2055260000     2.7258540000     1.7453180000
   11      C      -0.2893740000    -1.9534460000     0.0191180000
   12      H       0.4049260000    -1.9531460000    -0.8081820000
   13      H       0.3381260000    -2.6572460000     0.5457180000
   14      H      -1.0149740000    -2.4723460000    -0.5896820000
   15      H       1.1549260000     2.5844540000    -1.1424820000
 ----------------------------------------------------------------

   10    -629.4086924722      6.39e-07  Convergence criterion met
 Total energy in the final basis set =     -629.4086924722
        RIMP2         total energy =      -630.5878737145 a.u.

                    Orbital Energies (a.u.)
 --------------------------------------------------------------

 Alpha MOs
 -- Occupied --
-91.9764 -11.2750 -11.2584 -11.2469 -11.2309 -11.2270 -11.2157  -8.9769
 -6.6578  -6.6572  -6.6566  -1.1631  -1.0559  -0.9947  -0.9449  -0.8808
 -0.7478  -0.7197  -0.6480  -0.5879  -0.5780  -0.5649  -0.5528  -0.5477
 -0.5108  -0.4860  -0.4633  -0.4480  -0.3393  -0.2958

          Ground-State Mulliken Net Atomic Charges

     Atom                 Charge (a.u.)
  ----------------------------------------
      1 C                     0.042320
      2 C                    -0.295114
      3 C                     0.052800
      4 H                     0.179623
      5 C                    -0.255668
      6 S                    -0.005533
      7 C                    -0.271285
      8 H                     0.101679
      9 H                     0.107483
     10 H                     0.106588
     11 C                    -0.372976
     12 H                     0.131258
     13 H                     0.157946
     14 H                     0.126804
     15 H                     0.194073
  ----------------------------------------
  Sum of atomic charges =     0.000000

                    Cartesian Multipole Moments
 -----------------------------------------------------------------
    Charge (ESU x 10^10)
                -0.0000
    Dipole Moment (Debye)
         X       1.0979      Y      -0.1652      Z       1.0120
       Tot       1.5023
    Quadrupole Moments (Debye-Ang)
        XX     -52.7774     XY       2.3774     YY     -43.8925
        XZ       0.4420     YZ       1.1632     ZZ     -48.6362

 Total job time:  158.18s(wall), 156.54s(cpu)
        *  Thank you very much for using Q-Chem.  Have a nice day.  *
