 Q-Chem 5.4, Q-Chem, Inc., Pleasanton, CA (2021)
 Q-Chem 5.4.0 for Intel X86 EM64T Linux

User input:
--------------------------------------------------------------
$molecule
0 1
C	-0.336254	-0.485421	0.018946
C	0.095546	0.262479	1.118346
C	0.787546	1.460979	0.795646
H	-0.088854	-0.056921	2.155046
C	0.897846	1.652079	-0.593554
S	0.134946	0.330679	-1.467854
C	1.331446	2.402979	1.833546
H	1.118646	2.034379	2.855646
H	0.885746	3.415779	1.745146
H	2.431446	2.523379	1.745146
C	-0.336254	-1.926121	0.018946
H	-0.876154	-1.925821	-0.916454
H	0.373246	-2.629921	-0.390554
H	-1.156454	-2.445021	0.492546
H	1.372546	2.474079	-1.142654
$end

$rem
JOBTYPE		SP
EXCHANGE	HF
CORRELATION	pRIMP2
BASIS		cc-pvtz
METHOD		rimp2
AUX_BASIS	rimp2-cc-pvtz
SOLVENT_METHOD	PCM
PURECART	11111
SYMMETRY	false
MEM_TOTAL	110000
SCF_CONVERGENCE = 6
THRESH=10
$end

$solvent
dielectric 4.90
$end
--------------------------------------------------------------

             Standard Nuclear Orientation (Angstroms)
    I     Atom           X                Y                Z
 ----------------------------------------------------------------
    1      C      -0.3362540000    -0.4854210000     0.0189460000
    2      C       0.0955460000     0.2624790000     1.1183460000
    3      C       0.7875460000     1.4609790000     0.7956460000
    4      H      -0.0888540000    -0.0569210000     2.1550460000
    5      C       0.8978460000     1.6520790000    -0.5935540000
    6      S       0.1349460000     0.3306790000    -1.4678540000
    7      C       1.3314460000     2.4029790000     1.8335460000
    8      H       1.1186460000     2.0343790000     2.8556460000
    9      H       0.8857460000     3.4157790000     1.7451460000
   10      H       2.4314460000     2.5233790000     1.7451460000
   11      C      -0.3362540000    -1.9261210000     0.0189460000
   12      H      -0.8761540000    -1.9258210000    -0.9164540000
   13      H       0.3732460000    -2.6299210000    -0.3905540000
   14      H      -1.1564540000    -2.4450210000     0.4925460000
   15      H       1.3725460000     2.4740790000    -1.1426540000
 ----------------------------------------------------------------

   10    -629.4016408923      5.38e-07  Convergence criterion met
 Total energy in the final basis set =     -629.4016408923
        RIMP2         total energy =      -630.5835684312 a.u.

                    Orbital Energies (a.u.)
 --------------------------------------------------------------

 Alpha MOs
 -- Occupied --
-91.9791 -11.2669 -11.2635 -11.2476 -11.2339 -11.2272 -11.2131  -8.9791
 -6.6600  -6.6595  -6.6589  -1.1629  -1.0543  -0.9953  -0.9451  -0.8817
 -0.7485  -0.7208  -0.6455  -0.5890  -0.5761  -0.5704  -0.5510  -0.5465
 -0.5133  -0.4772  -0.4618  -0.4458  -0.3375  -0.3004

          Ground-State Mulliken Net Atomic Charges

     Atom                 Charge (a.u.)
  ----------------------------------------
      1 C                    -0.011827
      2 C                    -0.230727
      3 C                     0.031465
      4 H                     0.180062
      5 C                    -0.239757
      6 S                     0.001007
      7 C                    -0.271086
      8 H                     0.101882
      9 H                     0.106778
     10 H                     0.105985
     11 C                    -0.360066
     12 H                     0.111960
     13 H                     0.149654
     14 H                     0.129727
     15 H                     0.194943
  ----------------------------------------
  Sum of atomic charges =     0.000000

                    Cartesian Multipole Moments
 -----------------------------------------------------------------
    Charge (ESU x 10^10)
                -0.0000
    Dipole Moment (Debye)
         X       0.6078      Y       0.1740      Z       1.0398
       Tot       1.2169
    Quadrupole Moments (Debye-Ang)
        XX     -51.6477     XY       4.4855     YY     -44.7050
        XZ      -0.1371     YZ       1.1281     ZZ     -48.5837

 Total job time:  159.89s(wall), 157.01s(cpu)
        *  Thank you very much for using Q-Chem.  Have a nice day.  *
