 Q-Chem 5.4, Q-Chem, Inc., Pleasanton, CA (2021)
 Q-Chem 5.4.0 for Intel X86 EM64T Linux

User input:
--------------------------------------------------------------
$molecule
0 1
C	-0.517714	-0.333974	0.010543
C	0.143886	0.221126	1.109943
C	1.203986	1.110626	0.787243
H	-0.138614	-0.015974	2.146643
C	1.373086	1.252426	-0.601957
S	0.204186	0.271726	-1.476257
C	2.037286	1.809826	1.825143
H	1.711186	1.536226	2.847243
H	1.964886	2.914026	1.736743
H	3.112086	1.546726	1.736743
C	-0.517714	-1.774674	0.010543
H	-1.057814	-1.774374	0.945743
H	-1.227114	-2.478474	-0.399057
H	0.302486	-2.293574	0.484143
H	2.100186	1.862626	-1.151057
$end

$rem
JOBTYPE		SP
EXCHANGE	HF
CORRELATION	pRIMP2
BASIS		cc-pvtz
METHOD		rimp2
AUX_BASIS	rimp2-cc-pvtz
SOLVENT_METHOD	PCM
PURECART	11111
SYMMETRY	false
MEM_TOTAL	110000
SCF_CONVERGENCE = 6
THRESH=10
$end

$solvent
dielectric 4.90
$end
--------------------------------------------------------------

             Standard Nuclear Orientation (Angstroms)
    I     Atom           X                Y                Z
 ----------------------------------------------------------------
    1      C      -0.5177140000    -0.3339740000     0.0105430000
    2      C       0.1438860000     0.2211260000     1.1099430000
    3      C       1.2039860000     1.1106260000     0.7872430000
    4      H      -0.1386140000    -0.0159740000     2.1466430000
    5      C       1.3730860000     1.2524260000    -0.6019570000
    6      S       0.2041860000     0.2717260000    -1.4762570000
    7      C       2.0372860000     1.8098260000     1.8251430000
    8      H       1.7111860000     1.5362260000     2.8472430000
    9      H       1.9648860000     2.9140260000     1.7367430000
   10      H       3.1120860000     1.5467260000     1.7367430000
   11      C      -0.5177140000    -1.7746740000     0.0105430000
   12      H      -1.0578140000    -1.7743740000     0.9457430000
   13      H      -1.2271140000    -2.4784740000    -0.3990570000
   14      H       0.3024860000    -2.2935740000     0.4841430000
   15      H       2.1001860000     1.8626260000    -1.1510570000
 ----------------------------------------------------------------

   10    -629.3750465835      8.73e-07  Convergence criterion met
 Total energy in the final basis set =     -629.3750465835
        RIMP2         total energy =      -630.5633166850 a.u.

                    Orbital Energies (a.u.)
 --------------------------------------------------------------

 Alpha MOs
 -- Occupied --
-91.9717 -11.2741 -11.2557 -11.2494 -11.2470 -11.2289 -11.2104  -8.9726
 -6.6534  -6.6526  -6.6523  -1.1690  -1.0549  -0.9999  -0.9361  -0.8840
 -0.7457  -0.7296  -0.6437  -0.5906  -0.5826  -0.5661  -0.5558  -0.5429
 -0.5168  -0.4816  -0.4619  -0.4234  -0.3368  -0.3011

          Ground-State Mulliken Net Atomic Charges

     Atom                 Charge (a.u.)
  ----------------------------------------
      1 C                    -0.047392
      2 C                    -0.187208
      3 C                     0.005827
      4 H                     0.181249
      5 C                    -0.208270
      6 S                     0.005818
      7 C                    -0.267857
      8 H                     0.101652
      9 H                     0.106973
     10 H                     0.105845
     11 C                    -0.370980
     12 H                     0.108855
     13 H                     0.137735
     14 H                     0.132454
     15 H                     0.195299
  ----------------------------------------
  Sum of atomic charges =     0.000000

                    Cartesian Multipole Moments
 -----------------------------------------------------------------
    Charge (ESU x 10^10)
                -0.0000
    Dipole Moment (Debye)
         X       1.5370      Y       0.1841      Z       2.1996
       Tot       2.6897
    Quadrupole Moments (Debye-Ang)
        XX     -48.8110     XY       5.3988     YY     -48.2204
        XZ      -0.0230     YZ      -0.7887     ZZ     -48.3655

 Total job time:  158.87s(wall), 158.10s(cpu)
        *  Thank you very much for using Q-Chem.  Have a nice day.  *
