 Q-Chem 5.4, Q-Chem, Inc., Pleasanton, CA (2021)
 Q-Chem 5.4.0 for Intel X86 EM64T Linux

User input:
--------------------------------------------------------------
$molecule
0 1
C	-0.435764	-0.417594	0.019910
C	0.119336	0.243906	1.119310
C	1.008936	1.304106	0.796610
H	-0.117664	-0.038594	2.156010
C	1.150836	1.473106	-0.592590
S	0.170036	0.304306	-1.466890
C	1.708136	2.137306	1.834510
H	1.434536	1.811306	2.856610
H	1.445136	3.212106	1.746110
H	2.812336	2.064906	1.746110
C	-0.435764	-1.858294	0.019910
H	-0.623164	-1.858494	-1.043690
H	-1.242564	-2.562094	0.162110
H	0.496936	-2.377194	-0.144590
H	1.760936	2.200206	-1.141690
$end

$rem
JOBTYPE		SP
EXCHANGE	HF
CORRELATION	pRIMP2
BASIS		cc-pvtz
METHOD		rimp2
AUX_BASIS	rimp2-cc-pvtz
SOLVENT_METHOD	PCM
PURECART	11111
SYMMETRY	false
MEM_TOTAL	110000
SCF_CONVERGENCE = 6
THRESH=10
$end

$solvent
dielectric 4.90
$end
--------------------------------------------------------------

             Standard Nuclear Orientation (Angstroms)
    I     Atom           X                Y                Z
 ----------------------------------------------------------------
    1      C      -0.4357640000    -0.4175940000     0.0199100000
    2      C       0.1193360000     0.2439060000     1.1193100000
    3      C       1.0089360000     1.3041060000     0.7966100000
    4      H      -0.1176640000    -0.0385940000     2.1560100000
    5      C       1.1508360000     1.4731060000    -0.5925900000
    6      S       0.1700360000     0.3043060000    -1.4668900000
    7      C       1.7081360000     2.1373060000     1.8345100000
    8      H       1.4345360000     1.8113060000     2.8566100000
    9      H       1.4451360000     3.2121060000     1.7461100000
   10      H       2.8123360000     2.0649060000     1.7461100000
   11      C      -0.4357640000    -1.8582940000     0.0199100000
   12      H      -0.6231640000    -1.8584940000    -1.0436900000
   13      H      -1.2425640000    -2.5620940000     0.1621100000
   14      H       0.4969360000    -2.3771940000    -0.1445900000
   15      H       1.7609360000     2.2002060000    -1.1416900000
 ----------------------------------------------------------------

   10    -629.3885796486      5.57e-07  Convergence criterion met
 Total energy in the final basis set =     -629.3885796486
        RIMP2         total energy =      -630.5731689300 a.u.

                    Orbital Energies (a.u.)
 --------------------------------------------------------------

 Alpha MOs
 -- Occupied --
-91.9784 -11.2686 -11.2607 -11.2475 -11.2379 -11.2275 -11.2115  -8.9787
 -6.6595  -6.6589  -6.6584  -1.1660  -1.0554  -0.9945  -0.9452  -0.8801
 -0.7508  -0.7222  -0.6448  -0.5917  -0.5769  -0.5667  -0.5520  -0.5473
 -0.5138  -0.4715  -0.4637  -0.4415  -0.3357  -0.3044

          Ground-State Mulliken Net Atomic Charges

     Atom                 Charge (a.u.)
  ----------------------------------------
      1 C                    -0.025639
      2 C                    -0.210117
      3 C                     0.027541
      4 H                     0.178533
      5 C                    -0.230882
      6 S                     0.002818
      7 C                    -0.270309
      8 H                     0.102005
      9 H                     0.106818
     10 H                     0.105281
     11 C                    -0.358344
     12 H                     0.109367
     13 H                     0.138582
     14 H                     0.127843
     15 H                     0.196503
  ----------------------------------------
  Sum of atomic charges =     0.000000

                    Cartesian Multipole Moments
 -----------------------------------------------------------------
    Charge (ESU x 10^10)
                -0.0000
    Dipole Moment (Debye)
         X       1.2704      Y       0.2540      Z       1.0138
       Tot       1.6451
    Quadrupole Moments (Debye-Ang)
        XX     -50.3594     XY       4.8471     YY     -46.4501
        XZ       0.0664     YZ       1.0816     ZZ     -48.4726

 Total job time:  158.38s(wall), 156.21s(cpu)
        *  Thank you very much for using Q-Chem.  Have a nice day.  *
