 Q-Chem 5.4, Q-Chem, Inc., Pleasanton, CA (2021)
 Q-Chem 5.4.0 for Intel X86 EM64T Linux

User input:
--------------------------------------------------------------
$molecule
0 1
C	-0.122490	-0.566007	0.013623
C	0.027510	0.284493	1.113023
C	0.267810	1.647393	0.790323
H	-0.036590	-0.078707	2.149723
C	0.306210	1.864693	-0.598877
S	0.041210	0.362093	-1.473177
C	0.456710	2.718593	1.828223
H	0.382810	2.299393	2.850323
H	-0.308490	3.517893	1.739823
H	1.449210	3.207893	1.739823
C	-0.122490	-2.006707	0.013623
H	0.941110	-2.006907	0.201323
H	0.019810	-2.710507	-0.793077
H	-0.286990	-2.525607	0.946323
H	0.471010	2.799393	-1.147977
$end

$rem
JOBTYPE		SP
EXCHANGE	HF
CORRELATION	pRIMP2
BASIS		cc-pvtz
METHOD		rimp2
AUX_BASIS	rimp2-cc-pvtz
SOLVENT_METHOD	PCM
PURECART	11111
SYMMETRY	false
MEM_TOTAL	110000
SCF_CONVERGENCE = 6
THRESH=10
$end

$solvent
dielectric 4.90
$end
--------------------------------------------------------------

             Standard Nuclear Orientation (Angstroms)
    I     Atom           X                Y                Z
 ----------------------------------------------------------------
    1      C      -0.1224900000    -0.5660070000     0.0136230000
    2      C       0.0275100000     0.2844930000     1.1130230000
    3      C       0.2678100000     1.6473930000     0.7903230000
    4      H      -0.0365900000    -0.0787070000     2.1497230000
    5      C       0.3062100000     1.8646930000    -0.5988770000
    6      S       0.0412100000     0.3620930000    -1.4731770000
    7      C       0.4567100000     2.7185930000     1.8282230000
    8      H       0.3828100000     2.2993930000     2.8503230000
    9      H      -0.3084900000     3.5178930000     1.7398230000
   10      H       1.4492100000     3.2078930000     1.7398230000
   11      C      -0.1224900000    -2.0067070000     0.0136230000
   12      H       0.9411100000    -2.0069070000     0.2013230000
   13      H       0.0198100000    -2.7105070000    -0.7930770000
   14      H      -0.2869900000    -2.5256070000     0.9463230000
   15      H       0.4710100000     2.7993930000    -1.1479770000
 ----------------------------------------------------------------

   10    -629.4238371984      6.99e-07  Convergence criterion met
 Total energy in the final basis set =     -629.4238371984
        RIMP2         total energy =      -630.5994393773 a.u.

                    Orbital Energies (a.u.)
 --------------------------------------------------------------

 Alpha MOs
 -- Occupied --
-91.9780 -11.2867 -11.2483 -11.2470 -11.2265 -11.2229 -11.2227  -8.9778
 -6.6588  -6.6582  -6.6576  -1.1608  -1.0564  -0.9978  -0.9409  -0.8828
 -0.7434  -0.7190  -0.6479  -0.5897  -0.5757  -0.5702  -0.5539  -0.5452
 -0.5077  -0.4917  -0.4666  -0.4563  -0.3382  -0.2882

          Ground-State Mulliken Net Atomic Charges

     Atom                 Charge (a.u.)
  ----------------------------------------
      1 C                     0.067448
      2 C                    -0.310907
      3 C                     0.051505
      4 H                     0.174980
      5 C                    -0.282939
      6 S                     0.000107
      7 C                    -0.273639
      8 H                     0.101231
      9 H                     0.107328
     10 H                     0.107347
     11 C                    -0.385234
     12 H                     0.148891
     13 H                     0.162108
     14 H                     0.139547
     15 H                     0.192228
  ----------------------------------------
  Sum of atomic charges =     0.000000

                    Cartesian Multipole Moments
 -----------------------------------------------------------------
    Charge (ESU x 10^10)
                -0.0000
    Dipole Moment (Debye)
         X       0.9104      Y      -0.7982      Z       1.5313
       Tot       1.9521
    Quadrupole Moments (Debye-Ang)
        XX     -54.2958     XY      -0.0188     YY     -42.0083
        XZ      -0.0025     YZ       0.2191     ZZ     -48.6123

 Total job time:  159.05s(wall), 156.08s(cpu)
        *  Thank you very much for using Q-Chem.  Have a nice day.  *
