 Q-Chem 5.4, Q-Chem, Inc., Pleasanton, CA (2021)
 Q-Chem 5.4.0 for Intel X86 EM64T Linux

User input:
--------------------------------------------------------------
$molecule
0 1
C	-0.002941	-0.576312	0.011118
C	-0.002941	0.287288	1.110518
C	-0.002841	1.671188	0.787818
H	-0.002941	-0.081512	2.147218
C	-0.002841	1.891888	-0.601382
S	-0.002941	0.366088	-1.475682
C	-0.002841	2.758988	1.825718
H	-0.002841	2.333288	2.847818
H	-0.895241	3.413288	1.737318
H	0.889559	3.413188	1.737318
C	-0.002941	-2.017012	0.011118
H	0.536959	-2.016712	0.946518
H	-0.712441	-2.720812	0.420618
H	0.817259	-2.535912	-0.462482
H	-0.002841	2.841088	-1.150482
$end

$rem
JOBTYPE		SP
EXCHANGE	HF
CORRELATION	pRIMP2
BASIS		cc-pvtz
METHOD		rimp2
AUX_BASIS	rimp2-cc-pvtz
SOLVENT_METHOD	PCM
PURECART	11111
SYMMETRY	false
MEM_TOTAL	110000
SCF_CONVERGENCE = 6
THRESH=10
$end

$solvent
dielectric 4.90
$end
--------------------------------------------------------------

   10    -629.4244123656      5.26e-07  Convergence criterion met
 Total energy in the final basis set =     -629.4244123656
        RIMP2         total energy =      -630.6019531829 a.u.
 Total job time:  157.03s(wall), 155.27s(cpu)
        *  Thank you very much for using Q-Chem.  Have a nice day.  *
 Q-Chem 5.4, Q-Chem, Inc., Pleasanton, CA (2021)
 Q-Chem 5.4.0 for Intel X86 EM64T Linux

User input:
--------------------------------------------------------------
$molecule
0 1
C	-0.002941	-0.576312	0.011118
C	-0.002941	0.287288	1.110518
C	-0.002841	1.671188	0.787818
H	-0.002941	-0.081512	2.147218
C	-0.002841	1.891888	-0.601382
S	-0.002941	0.366088	-1.475682
C	-0.002841	2.758988	1.825718
H	-0.002841	2.333288	2.847818
H	-0.895241	3.413288	1.737318
H	0.889559	3.413188	1.737318
C	-0.002941	-2.017012	0.011118
H	0.536959	-2.016712	0.946518
H	-0.712441	-2.720812	0.420618
H	0.817259	-2.535912	-0.462482
H	-0.002841	2.841088	-1.150482
$end

$rem
JOBTYPE		SP
EXCHANGE	HF
CORRELATION	pRIMP2
BASIS		cc-pvtz
METHOD		rimp2
AUX_BASIS	rimp2-cc-pvtz
SOLVENT_METHOD	PCM
PURECART	11111
SYMMETRY	false
MEM_TOTAL	110000
SCF_CONVERGENCE = 6
THRESH=10
$end

$solvent
dielectric 4.90
$end
--------------------------------------------------------------

             Standard Nuclear Orientation (Angstroms)
    I     Atom           X                Y                Z
 ----------------------------------------------------------------
    1      C      -0.0029410000    -0.5763120000     0.0111180000
    2      C      -0.0029410000     0.2872880000     1.1105180000
    3      C      -0.0028410000     1.6711880000     0.7878180000
    4      H      -0.0029410000    -0.0815120000     2.1472180000
    5      C      -0.0028410000     1.8918880000    -0.6013820000
    6      S      -0.0029410000     0.3660880000    -1.4756820000
    7      C      -0.0028410000     2.7589880000     1.8257180000
    8      H      -0.0028410000     2.3332880000     2.8478180000
    9      H      -0.8952410000     3.4132880000     1.7373180000
   10      H       0.8895590000     3.4131880000     1.7373180000
   11      C      -0.0029410000    -2.0170120000     0.0111180000
   12      H       0.5369590000    -2.0167120000     0.9465180000
   13      H      -0.7124410000    -2.7208120000     0.4206180000
   14      H       0.8172590000    -2.5359120000    -0.4624820000
   15      H      -0.0028410000     2.8410880000    -1.1504820000
 ----------------------------------------------------------------

   10    -629.4244123656      5.26e-07  Convergence criterion met
 Total energy in the final basis set =     -629.4244123656
        RIMP2         total energy =      -630.6019531829 a.u.

                    Orbital Energies (a.u.)
 --------------------------------------------------------------

 Alpha MOs
 -- Occupied --
-91.9762 -11.2795 -11.2550 -11.2471 -11.2311 -11.2272 -11.2173  -8.9762
 -6.6571  -6.6566  -6.6560  -1.1607  -1.0543  -0.9992  -0.9401  -0.8841
 -0.7424  -0.7228  -0.6494  -0.5902  -0.5760  -0.5656  -0.5603  -0.5426
 -0.5096  -0.4872  -0.4673  -0.4430  -0.3375  -0.2997

          Ground-State Mulliken Net Atomic Charges

     Atom                 Charge (a.u.)
  ----------------------------------------
      1 C                     0.066141
      2 C                    -0.271775
      3 C                     0.031974
      4 H                     0.177552
      5 C                    -0.257574
      6 S                    -0.007179
      7 C                    -0.274444
      8 H                     0.101176
      9 H                     0.107290
     10 H                     0.107132
     11 C                    -0.379459
     12 H                     0.126804
     13 H                     0.143878
     14 H                     0.135525
     15 H                     0.192961
  ----------------------------------------
  Sum of atomic charges =     0.000000

                    Cartesian Multipole Moments
 -----------------------------------------------------------------
    Charge (ESU x 10^10)
                -0.0000
    Dipole Moment (Debye)
         X       0.3506      Y      -0.2245      Z       2.0460
       Tot       2.0880
    Quadrupole Moments (Debye-Ang)
        XX     -53.8667     XY      -0.7103     YY     -42.1304
        XZ      -0.2703     YZ      -0.9847     ZZ     -48.8240

 Total job time:  157.90s(wall), 156.17s(cpu)
        *  Thank you very much for using Q-Chem.  Have a nice day.  *
