 Q-Chem 5.4, Q-Chem, Inc., Pleasanton, CA (2021)
 Q-Chem 5.4.0 for Intel X86 EM64T Linux

User input:
--------------------------------------------------------------
$molecule
0 1
C	-0.235359	-0.535395	0.011472
C	0.060041	0.276105	1.110872
C	0.533341	1.576505	0.788172
H	-0.066059	-0.070395	2.147572
C	0.608841	1.783905	-0.601028
S	0.086941	0.350205	-1.475328
C	0.905441	2.598705	1.826072
H	0.759841	2.198705	2.848172
H	0.290641	3.518705	1.737672
H	1.967841	2.908305	1.737672
C	-0.235359	-1.976095	0.011472
H	0.591941	-1.976295	0.705772
H	0.291241	-2.679895	-0.616028
H	-0.844159	-2.494995	0.737072
H	0.933541	2.675905	-1.150128
$end

$rem
JOBTYPE		SP
EXCHANGE	HF
CORRELATION	pRIMP2
BASIS		cc-pvtz
METHOD		rimp2
AUX_BASIS	rimp2-cc-pvtz
SOLVENT_METHOD	PCM
PURECART	11111
SYMMETRY	false
MEM_TOTAL	110000
SCF_CONVERGENCE = 6
THRESH=10
$end

$solvent
dielectric 4.90
$end
--------------------------------------------------------------

             Standard Nuclear Orientation (Angstroms)
    I     Atom           X                Y                Z
 ----------------------------------------------------------------
    1      C      -0.2353590000    -0.5353950000     0.0114720000
    2      C       0.0600410000     0.2761050000     1.1108720000
    3      C       0.5333410000     1.5765050000     0.7881720000
    4      H      -0.0660590000    -0.0703950000     2.1475720000
    5      C       0.6088410000     1.7839050000    -0.6010280000
    6      S       0.0869410000     0.3502050000    -1.4753280000
    7      C       0.9054410000     2.5987050000     1.8260720000
    8      H       0.7598410000     2.1987050000     2.8481720000
    9      H       0.2906410000     3.5187050000     1.7376720000
   10      H       1.9678410000     2.9083050000     1.7376720000
   11      C      -0.2353590000    -1.9760950000     0.0114720000
   12      H       0.5919410000    -1.9762950000     0.7057720000
   13      H       0.2912410000    -2.6798950000    -0.6160280000
   14      H      -0.8441590000    -2.4949950000     0.7370720000
   15      H       0.9335410000     2.6759050000    -1.1501280000
 ----------------------------------------------------------------

   10    -629.4141658082      5.85e-07  Convergence criterion met
 Total energy in the final basis set =     -629.4141658082
        RIMP2         total energy =      -630.5931552744 a.u.

                    Orbital Energies (a.u.)
 --------------------------------------------------------------

 Alpha MOs
 -- Occupied --
-91.9780 -11.2813 -11.2522 -11.2477 -11.2273 -11.2271 -11.2178  -8.9778
 -6.6587  -6.6582  -6.6576  -1.1620  -1.0552  -0.9987  -0.9389  -0.8833
 -0.7426  -0.7215  -0.6474  -0.5904  -0.5742  -0.5723  -0.5565  -0.5435
 -0.5101  -0.4826  -0.4672  -0.4512  -0.3366  -0.2923

          Ground-State Mulliken Net Atomic Charges

     Atom                 Charge (a.u.)
  ----------------------------------------
      1 C                     0.046511
      2 C                    -0.274586
      3 C                     0.038042
      4 H                     0.175525
      5 C                    -0.269320
      6 S                     0.000871
      7 C                    -0.271848
      8 H                     0.101273
      9 H                     0.107362
     10 H                     0.106683
     11 C                    -0.391589
     12 H                     0.145472
     13 H                     0.160053
     14 H                     0.133430
     15 H                     0.192120
  ----------------------------------------
  Sum of atomic charges =     0.000000

                    Cartesian Multipole Moments
 -----------------------------------------------------------------
    Charge (ESU x 10^10)
                -0.0000
    Dipole Moment (Debye)
         X       0.9686      Y      -0.4778      Z       1.8888
       Tot       2.1758
    Quadrupole Moments (Debye-Ang)
        XX     -53.4059     XY       1.5843     YY     -43.2724
        XZ      -0.2274     YZ      -0.5330     ZZ     -48.5996

 Total job time:  159.18s(wall), 157.45s(cpu)
        *  Thank you very much for using Q-Chem.  Have a nice day.  *
