 Q-Chem 5.4, Q-Chem, Inc., Pleasanton, CA (2021)
 Q-Chem 5.4.0 for Intel X86 EM64T Linux

User input:
--------------------------------------------------------------
$molecule
0 1
C	0.003896	-0.576309	0.017956
C	0.003896	0.287291	1.117356
C	0.003996	1.671191	0.794656
H	0.003896	-0.081509	2.154056
C	0.003996	1.891891	-0.594544
S	0.003896	0.366091	-1.468844
C	0.003996	2.758991	1.832556
H	0.003996	2.333291	2.854656
H	-0.888404	3.413291	1.744156
H	0.896396	3.413191	1.744156
C	0.003896	-2.017009	0.017956
H	-0.931304	-2.017209	-0.522144
H	-0.405704	-2.720809	0.727356
H	0.477496	-2.535909	-0.802244
H	0.003996	2.841091	-1.143644
$end

$rem
JOBTYPE		SP
EXCHANGE	HF
CORRELATION	pRIMP2
BASIS		cc-pvtz
METHOD		rimp2
AUX_BASIS	rimp2-cc-pvtz
SOLVENT_METHOD	PCM
PURECART	11111
SYMMETRY	false
MEM_TOTAL	110000
SCF_CONVERGENCE = 6
THRESH=10
$end

$solvent
dielectric 4.90
$end
--------------------------------------------------------------

   10    -629.4236621676      6.77e-07  Convergence criterion met
 Total energy in the final basis set =     -629.4236621676
        RIMP2         total energy =      -630.5989535704 a.u.
 Total job time:  159.49s(wall), 157.07s(cpu)
        *  Thank you very much for using Q-Chem.  Have a nice day.  *
 Q-Chem 5.4, Q-Chem, Inc., Pleasanton, CA (2021)
 Q-Chem 5.4.0 for Intel X86 EM64T Linux

User input:
--------------------------------------------------------------
$molecule
0 1
C	0.003896	-0.576309	0.017956
C	0.003896	0.287291	1.117356
C	0.003996	1.671191	0.794656
H	0.003896	-0.081509	2.154056
C	0.003996	1.891891	-0.594544
S	0.003896	0.366091	-1.468844
C	0.003996	2.758991	1.832556
H	0.003996	2.333291	2.854656
H	-0.888404	3.413291	1.744156
H	0.896396	3.413191	1.744156
C	0.003896	-2.017009	0.017956
H	-0.931304	-2.017209	-0.522144
H	-0.405704	-2.720809	0.727356
H	0.477496	-2.535909	-0.802244
H	0.003996	2.841091	-1.143644
$end

$rem
JOBTYPE		SP
EXCHANGE	HF
CORRELATION	pRIMP2
BASIS		cc-pvtz
METHOD		rimp2
AUX_BASIS	rimp2-cc-pvtz
SOLVENT_METHOD	PCM
PURECART	11111
SYMMETRY	false
MEM_TOTAL	110000
SCF_CONVERGENCE = 6
THRESH=10
$end

$solvent
dielectric 4.90
$end
--------------------------------------------------------------

             Standard Nuclear Orientation (Angstroms)
    I     Atom           X                Y                Z
 ----------------------------------------------------------------
    1      C       0.0038960000    -0.5763090000     0.0179560000
    2      C       0.0038960000     0.2872910000     1.1173560000
    3      C       0.0039960000     1.6711910000     0.7946560000
    4      H       0.0038960000    -0.0815090000     2.1540560000
    5      C       0.0039960000     1.8918910000    -0.5945440000
    6      S       0.0038960000     0.3660910000    -1.4688440000
    7      C       0.0039960000     2.7589910000     1.8325560000
    8      H       0.0039960000     2.3332910000     2.8546560000
    9      H      -0.8884040000     3.4132910000     1.7441560000
   10      H       0.8963960000     3.4131910000     1.7441560000
   11      C       0.0038960000    -2.0170090000     0.0179560000
   12      H      -0.9313040000    -2.0172090000    -0.5221440000
   13      H      -0.4057040000    -2.7208090000     0.7273560000
   14      H       0.4774960000    -2.5359090000    -0.8022440000
   15      H       0.0039960000     2.8410910000    -1.1436440000
 ----------------------------------------------------------------

   10    -629.4236621676      6.77e-07  Convergence criterion met
 Total energy in the final basis set =     -629.4236621676
        RIMP2         total energy =      -630.5989535704 a.u.

                    Orbital Energies (a.u.)
 --------------------------------------------------------------

 Alpha MOs
 -- Occupied --
-91.9788 -11.2830 -11.2514 -11.2467 -11.2264 -11.2241 -11.2206  -8.9787
 -6.6597  -6.6592  -6.6585  -1.1604  -1.0561  -0.9961  -0.9444  -0.8820
 -0.7454  -0.7180  -0.6492  -0.5886  -0.5756  -0.5659  -0.5527  -0.5474
 -0.5077  -0.4922  -0.4656  -0.4547  -0.3393  -0.2916

          Ground-State Mulliken Net Atomic Charges

     Atom                 Charge (a.u.)
  ----------------------------------------
      1 C                     0.058526
      2 C                    -0.294529
      3 C                     0.045006
      4 H                     0.180075
      5 C                    -0.270339
      6 S                    -0.004570
      7 C                    -0.273721
      8 H                     0.101405
      9 H                     0.107166
     10 H                     0.107285
     11 C                    -0.379109
     12 H                     0.131739
     13 H                     0.161920
     14 H                     0.135105
     15 H                     0.194041
  ----------------------------------------
  Sum of atomic charges =     0.000000

                    Cartesian Multipole Moments
 -----------------------------------------------------------------
    Charge (ESU x 10^10)
                -0.0000
    Dipole Moment (Debye)
         X      -0.6134      Y      -0.5406      Z       1.0635
       Tot       1.3415
    Quadrupole Moments (Debye-Ang)
        XX     -54.2404     XY       1.3804     YY     -41.7405
        XZ      -0.2929     YZ       0.9011     ZZ     -48.6762

 Total job time:  155.99s(wall), 155.06s(cpu)
        *  Thank you very much for using Q-Chem.  Have a nice day.  *
