 Q-Chem 5.4, Q-Chem, Inc., Pleasanton, CA (2021)
 Q-Chem 5.4.0 for Intel X86 EM64T Linux

User input:
--------------------------------------------------------------
$molecule
0 1
C	-0.140309	-0.568400	0.014457
C	0.009691	0.282100	1.113857
C	0.249991	1.645000	0.791157
H	-0.054409	-0.081100	2.150557
C	0.288391	1.862300	-0.598043
S	0.023391	0.359700	-1.472343
C	0.438891	2.716200	1.829057
H	0.364991	2.297000	2.851157
H	-0.326309	3.515500	1.740657
H	1.431391	3.205500	1.740657
C	0.109891	-1.987200	0.014457
H	1.173491	-1.799900	0.014557
H	0.232091	-2.680300	-0.804743
H	0.199991	-2.498300	0.961557
H	0.453191	2.797000	-1.147143
$end

$rem
JOBTYPE		SP
EXCHANGE	HF
CORRELATION	pRIMP2
BASIS		cc-pvtz
METHOD		rimp2
AUX_BASIS	rimp2-cc-pvtz
SOLVENT_METHOD	PCM
PURECART	11111
SYMMETRY	false
MEM_TOTAL	110000
SCF_CONVERGENCE = 6
THRESH=10
$end

$solvent
dielectric 4.90
$end
--------------------------------------------------------------

             Standard Nuclear Orientation (Angstroms)
    I     Atom           X                Y                Z
 ----------------------------------------------------------------
    1      C      -0.1403090000    -0.5684000000     0.0144570000
    2      C       0.0096910000     0.2821000000     1.1138570000
    3      C       0.2499910000     1.6450000000     0.7911570000
    4      H      -0.0544090000    -0.0811000000     2.1505570000
    5      C       0.2883910000     1.8623000000    -0.5980430000
    6      S       0.0233910000     0.3597000000    -1.4723430000
    7      C       0.4388910000     2.7162000000     1.8290570000
    8      H       0.3649910000     2.2970000000     2.8511570000
    9      H      -0.3263090000     3.5155000000     1.7406570000
   10      H       1.4313910000     3.2055000000     1.7406570000
   11      C       0.1098910000    -1.9872000000     0.0144570000
   12      H       1.1734910000    -1.7999000000     0.0145570000
   13      H       0.2320910000    -2.6803000000    -0.8047430000
   14      H       0.1999910000    -2.4983000000     0.9615570000
   15      H       0.4531910000     2.7970000000    -1.1471430000
 ----------------------------------------------------------------

   10    -629.4192603932      6.98e-07  Convergence criterion met
 Total energy in the final basis set =     -629.4192603932
        RIMP2         total energy =      -630.5958475207 a.u.

                    Orbital Energies (a.u.)
 --------------------------------------------------------------

 Alpha MOs
 -- Occupied --
-91.9773 -11.2852 -11.2501 -11.2475 -11.2267 -11.2240 -11.2226  -8.9773
 -6.6583  -6.6577  -6.6571  -1.1622  -1.0567  -0.9972  -0.9409  -0.8824
 -0.7443  -0.7195  -0.6473  -0.5891  -0.5784  -0.5687  -0.5524  -0.5459
 -0.5074  -0.4929  -0.4653  -0.4565  -0.3388  -0.2879

          Ground-State Mulliken Net Atomic Charges

     Atom                 Charge (a.u.)
  ----------------------------------------
      1 C                     0.061293
      2 C                    -0.319372
      3 C                     0.059436
      4 H                     0.175504
      5 C                    -0.281549
      6 S                    -0.000964
      7 C                    -0.271528
      8 H                     0.101396
      9 H                     0.107545
     10 H                     0.107060
     11 C                    -0.376622
     12 H                     0.150256
     13 H                     0.158734
     14 H                     0.136364
     15 H                     0.192447
  ----------------------------------------
  Sum of atomic charges =     0.000000

                    Cartesian Multipole Moments
 -----------------------------------------------------------------
    Charge (ESU x 10^10)
                -0.0000
    Dipole Moment (Debye)
         X       1.2241      Y      -0.5332      Z       1.4358
       Tot       1.9606
    Quadrupole Moments (Debye-Ang)
        XX     -53.9309     XY      -0.5269     YY     -42.6974
        XZ       0.0850     YZ       0.4395     ZZ     -48.5921

 Total job time:  161.90s(wall), 158.86s(cpu)
        *  Thank you very much for using Q-Chem.  Have a nice day.  *
