 Q-Chem 5.4, Q-Chem, Inc., Pleasanton, CA (2021)
 Q-Chem 5.4.0 for Intel X86 EM64T Linux

User input:
--------------------------------------------------------------
$molecule
0 1
C	-0.290043	-0.512744	0.011472
C	0.074957	0.269956	1.110872
C	0.659857	1.524156	0.788172
H	-0.080943	-0.064344	2.147572
C	0.753157	1.724156	-0.601028
S	0.108257	0.341356	-1.475328
C	1.119557	2.509956	1.826072
H	0.939657	2.124256	2.848172
H	0.587257	3.480156	1.737672
H	2.204857	2.725856	1.737672
C	-0.290043	-1.953444	0.011472
H	0.537257	-1.953644	0.705772
H	0.236557	-2.657244	-0.616028
H	-0.898843	-2.472344	0.737072
H	1.154257	2.584456	-1.150128
$end

$rem
JOBTYPE		SP
EXCHANGE	HF
CORRELATION	pRIMP2
BASIS		cc-pvtz
METHOD		rimp2
AUX_BASIS	rimp2-cc-pvtz
SOLVENT_METHOD	PCM
PURECART	11111
SYMMETRY	false
MEM_TOTAL	110000
SCF_CONVERGENCE = 6
THRESH=10
$end

$solvent
dielectric 4.90
$end
--------------------------------------------------------------

             Standard Nuclear Orientation (Angstroms)
    I     Atom           X                Y                Z
 ----------------------------------------------------------------
    1      C      -0.2900430000    -0.5127440000     0.0114720000
    2      C       0.0749570000     0.2699560000     1.1108720000
    3      C       0.6598570000     1.5241560000     0.7881720000
    4      H      -0.0809430000    -0.0643440000     2.1475720000
    5      C       0.7531570000     1.7241560000    -0.6010280000
    6      S       0.1082570000     0.3413560000    -1.4753280000
    7      C       1.1195570000     2.5099560000     1.8260720000
    8      H       0.9396570000     2.1242560000     2.8481720000
    9      H       0.5872570000     3.4801560000     1.7376720000
   10      H       2.2048570000     2.7258560000     1.7376720000
   11      C      -0.2900430000    -1.9534440000     0.0114720000
   12      H       0.5372570000    -1.9536440000     0.7057720000
   13      H       0.2365570000    -2.6572440000    -0.6160280000
   14      H      -0.8988430000    -2.4723440000     0.7370720000
   15      H       1.1542570000     2.5844560000    -1.1501280000
 ----------------------------------------------------------------

   10    -629.4087414661      5.66e-07  Convergence criterion met
 Total energy in the final basis set =     -629.4087414661
        RIMP2         total energy =      -630.5889971756 a.u.

                    Orbital Energies (a.u.)
 --------------------------------------------------------------

 Alpha MOs
 -- Occupied --
-91.9782 -11.2796 -11.2536 -11.2478 -11.2280 -11.2272 -11.2169  -8.9779
 -6.6589  -6.6583  -6.6578  -1.1628  -1.0552  -0.9987  -0.9383  -0.8831
 -0.7428  -0.7221  -0.6469  -0.5899  -0.5746  -0.5728  -0.5561  -0.5435
 -0.5107  -0.4807  -0.4667  -0.4515  -0.3362  -0.2919

          Ground-State Mulliken Net Atomic Charges

     Atom                 Charge (a.u.)
  ----------------------------------------
      1 C                     0.036332
      2 C                    -0.268221
      3 C                     0.036685
      4 H                     0.175547
      5 C                    -0.266550
      6 S                     0.002786
      7 C                    -0.271096
      8 H                     0.101370
      9 H                     0.107340
     10 H                     0.106405
     11 C                    -0.391625
     12 H                     0.146911
     13 H                     0.160662
     14 H                     0.131169
     15 H                     0.192286
  ----------------------------------------
  Sum of atomic charges =     0.000000

                    Cartesian Multipole Moments
 -----------------------------------------------------------------
    Charge (ESU x 10^10)
                -0.0000
    Dipole Moment (Debye)
         X       1.0970      Y      -0.4281      Z       1.8929
       Tot       2.2293
    Quadrupole Moments (Debye-Ang)
        XX     -52.9771     XY       2.1559     YY     -43.9435
        XZ      -0.2260     YZ      -0.5502     ZZ     -48.5380

 Total job time:  158.91s(wall), 156.98s(cpu)
        *  Thank you very much for using Q-Chem.  Have a nice day.  *
