 Q-Chem 5.4, Q-Chem, Inc., Pleasanton, CA (2021)
 Q-Chem 5.4.0 for Intel X86 EM64T Linux

User input:
--------------------------------------------------------------
$molecule
0 1
C	-0.582618	-0.237127	0.015607
C	0.165282	0.194673	1.115007
C	1.363782	0.886573	0.792307
H	-0.154118	0.010273	2.151707
C	1.554882	0.996873	-0.596893
S	0.233582	0.234073	-1.471193
C	2.305882	1.430473	1.830207
H	1.937182	1.217573	2.852307
H	2.426282	2.530373	1.741807
H	3.318682	0.984673	1.741807
C	-0.582618	-1.677827	0.015607
H	-1.662618	-1.678027	0.015507
H	-0.582718	-2.381627	0.834807
H	-0.582618	-2.196727	-0.931493
H	2.376982	1.471473	-1.145993
$end

$rem
JOBTYPE		SP
EXCHANGE	HF
CORRELATION	pRIMP2
BASIS		cc-pvtz
METHOD		rimp2
AUX_BASIS	rimp2-cc-pvtz
SOLVENT_METHOD	PCM
PURECART	11111
SYMMETRY	false
MEM_TOTAL	110000
SCF_CONVERGENCE = 6
THRESH=10
$end

$solvent
dielectric 4.90
$end
--------------------------------------------------------------

             Standard Nuclear Orientation (Angstroms)
    I     Atom           X                Y                Z
 ----------------------------------------------------------------
    1      C      -0.5826180000    -0.2371270000     0.0156070000
    2      C       0.1652820000     0.1946730000     1.1150070000
    3      C       1.3637820000     0.8865730000     0.7923070000
    4      H      -0.1541180000     0.0102730000     2.1517070000
    5      C       1.5548820000     0.9968730000    -0.5968930000
    6      S       0.2335820000     0.2340730000    -1.4711930000
    7      C       2.3058820000     1.4304730000     1.8302070000
    8      H       1.9371820000     1.2175730000     2.8523070000
    9      H       2.4262820000     2.5303730000     1.7418070000
   10      H       3.3186820000     0.9846730000     1.7418070000
   11      C      -0.5826180000    -1.6778270000     0.0156070000
   12      H      -1.6626180000    -1.6780270000     0.0155070000
   13      H      -0.5827180000    -2.3816270000     0.8348070000
   14      H      -0.5826180000    -2.1967270000    -0.9314930000
   15      H       2.3769820000     1.4714730000    -1.1459930000
 ----------------------------------------------------------------

   11    -629.3337412365      6.66e-07  Convergence criterion met
 Total energy in the final basis set =     -629.3337412365
        RIMP2         total energy =      -630.5267164241 a.u.

                    Orbital Energies (a.u.)
 --------------------------------------------------------------

 Alpha MOs
 -- Occupied --
-91.9721 -11.2798 -11.2513 -11.2481 -11.2415 -11.2283 -11.2036  -8.9731
 -6.6540  -6.6530  -6.6528  -1.1712  -1.0546  -0.9968  -0.9398  -0.8810
 -0.7506  -0.7293  -0.6424  -0.5875  -0.5764  -0.5661  -0.5529  -0.5422
 -0.5176  -0.4914  -0.4589  -0.4206  -0.3344  -0.2825

          Ground-State Mulliken Net Atomic Charges

     Atom                 Charge (a.u.)
  ----------------------------------------
      1 C                    -0.106955
      2 C                    -0.130046
      3 C                    -0.013807
      4 H                     0.184975
      5 C                    -0.188402
      6 S                     0.011953
      7 C                    -0.269185
      8 H                     0.101701
      9 H                     0.106496
     10 H                     0.104043
     11 C                    -0.398265
     12 H                     0.125608
     13 H                     0.146388
     14 H                     0.128936
     15 H                     0.196561
  ----------------------------------------
  Sum of atomic charges =     0.000000

                    Cartesian Multipole Moments
 -----------------------------------------------------------------
    Charge (ESU x 10^10)
                -0.0000
    Dipole Moment (Debye)
         X       1.7861      Y       0.0226      Z       1.7320
       Tot       2.4880
    Quadrupole Moments (Debye-Ang)
        XX     -47.9087     XY       5.2374     YY     -50.1324
        XZ      -0.3553     YZ      -0.0178     ZZ     -47.4533

 Total job time:  175.60s(wall), 174.56s(cpu)
        *  Thank you very much for using Q-Chem.  Have a nice day.  *
