 Q-Chem 5.4, Q-Chem, Inc., Pleasanton, CA (2021)
 Q-Chem 5.4.0 for Intel X86 EM64T Linux

User input:
--------------------------------------------------------------
$molecule
0 1
C	-0.236374	-0.535395	0.012832
C	0.059026	0.276105	1.112232
C	0.532326	1.576505	0.789532
H	-0.067074	-0.070395	2.148932
C	0.607826	1.783905	-0.599668
S	0.085926	0.350205	-1.473968
C	0.904426	2.598705	1.827432
H	0.758826	2.198705	2.849532
H	0.289626	3.518705	1.739032
H	1.966826	2.908305	1.739032
C	-0.236374	-1.976095	0.012832
H	0.778426	-1.976295	0.382332
H	0.043826	-2.679895	-0.756968
H	-0.560274	-2.494995	0.902832
H	0.932526	2.675905	-1.148768
$end

$rem
JOBTYPE		SP
EXCHANGE	HF
CORRELATION	pRIMP2
BASIS		cc-pvtz
METHOD		rimp2
AUX_BASIS	rimp2-cc-pvtz
SOLVENT_METHOD	PCM
PURECART	11111
SYMMETRY	false
MEM_TOTAL	110000
SCF_CONVERGENCE = 6
THRESH=10
$end

$solvent
dielectric 4.90
$end
--------------------------------------------------------------

             Standard Nuclear Orientation (Angstroms)
    I     Atom           X                Y                Z
 ----------------------------------------------------------------
    1      C      -0.2363740000    -0.5353950000     0.0128320000
    2      C       0.0590260000     0.2761050000     1.1122320000
    3      C       0.5323260000     1.5765050000     0.7895320000
    4      H      -0.0670740000    -0.0703950000     2.1489320000
    5      C       0.6078260000     1.7839050000    -0.5996680000
    6      S       0.0859260000     0.3502050000    -1.4739680000
    7      C       0.9044260000     2.5987050000     1.8274320000
    8      H       0.7588260000     2.1987050000     2.8495320000
    9      H       0.2896260000     3.5187050000     1.7390320000
   10      H       1.9668260000     2.9083050000     1.7390320000
   11      C      -0.2363740000    -1.9760950000     0.0128320000
   12      H       0.7784260000    -1.9762950000     0.3823320000
   13      H       0.0438260000    -2.6798950000    -0.7569680000
   14      H      -0.5602740000    -2.4949950000     0.9028320000
   15      H       0.9325260000     2.6759050000    -1.1487680000
 ----------------------------------------------------------------

   10    -629.4168345875      6.59e-07  Convergence criterion met
 Total energy in the final basis set =     -629.4168345875
        RIMP2         total energy =      -630.5944730393 a.u.

                    Orbital Energies (a.u.)
 --------------------------------------------------------------

 Alpha MOs
 -- Occupied --
-91.9783 -11.2844 -11.2500 -11.2477 -11.2268 -11.2242 -11.2209  -8.9781
 -6.6591  -6.6585  -6.6579  -1.1620  -1.0562  -0.9980  -0.9397  -0.8828
 -0.7433  -0.7201  -0.6474  -0.5896  -0.5762  -0.5707  -0.5548  -0.5446
 -0.5086  -0.4878  -0.4661  -0.4559  -0.3377  -0.2886

          Ground-State Mulliken Net Atomic Charges

     Atom                 Charge (a.u.)
  ----------------------------------------
      1 C                     0.051938
      2 C                    -0.294895
      3 C                     0.048297
      4 H                     0.174745
      5 C                    -0.279494
      6 S                     0.002430
      7 C                    -0.271600
      8 H                     0.101374
      9 H                     0.107468
     10 H                     0.106799
     11 C                    -0.386246
     12 H                     0.151275
     13 H                     0.160634
     14 H                     0.135003
     15 H                     0.192272
  ----------------------------------------
  Sum of atomic charges =     0.000000

                    Cartesian Multipole Moments
 -----------------------------------------------------------------
    Charge (ESU x 10^10)
                -0.0000
    Dipole Moment (Debye)
         X       1.0688      Y      -0.6875      Z       1.6616
       Tot       2.0919
    Quadrupole Moments (Debye-Ang)
        XX     -53.6705     XY       1.4207     YY     -43.0299
        XZ      -0.0522     YZ      -0.0883     ZZ     -48.5592

 Total job time:  159.93s(wall), 157.45s(cpu)
        *  Thank you very much for using Q-Chem.  Have a nice day.  *
