 Q-Chem 5.4, Q-Chem, Inc., Pleasanton, CA (2021)
 Q-Chem 5.4.0 for Intel X86 EM64T Linux

User input:
--------------------------------------------------------------
$molecule
0 1
C	-0.059422	-0.573729	0.019910
C	0.015878	0.286571	1.119310
C	0.136478	1.665271	0.796610
H	-0.016222	-0.080829	2.156010
C	0.155778	1.885071	-0.592590
S	0.022778	0.365071	-1.466890
C	0.231378	2.748871	1.834510
H	0.194278	2.324771	2.856610
H	-0.600622	3.478371	1.746110
H	1.177378	3.322871	1.746110
C	-0.059422	-2.014429	0.019910
H	0.128278	-2.014129	-1.043690
H	0.747278	-2.718229	0.162210
H	-0.992122	-2.533329	-0.144590
H	0.238478	2.830671	-1.141690
$end

$rem
JOBTYPE		SP
EXCHANGE	HF
CORRELATION	pRIMP2
BASIS		cc-pvtz
METHOD		rimp2
AUX_BASIS	rimp2-cc-pvtz
SOLVENT_METHOD	PCM
PURECART	11111
SYMMETRY	false
MEM_TOTAL	110000
SCF_CONVERGENCE = 6
THRESH=10
$end

$solvent
dielectric 4.90
$end
--------------------------------------------------------------

             Standard Nuclear Orientation (Angstroms)
    I     Atom           X                Y                Z
 ----------------------------------------------------------------
    1      C      -0.0594220000    -0.5737290000     0.0199100000
    2      C       0.0158780000     0.2865710000     1.1193100000
    3      C       0.1364780000     1.6652710000     0.7966100000
    4      H      -0.0162220000    -0.0808290000     2.1560100000
    5      C       0.1557780000     1.8850710000    -0.5925900000
    6      S       0.0227780000     0.3650710000    -1.4668900000
    7      C       0.2313780000     2.7488710000     1.8345100000
    8      H       0.1942780000     2.3247710000     2.8566100000
    9      H      -0.6006220000     3.4783710000     1.7461100000
   10      H       1.1773780000     3.3228710000     1.7461100000
   11      C      -0.0594220000    -2.0144290000     0.0199100000
   12      H       0.1282780000    -2.0141290000    -1.0436900000
   13      H       0.7472780000    -2.7182290000     0.1622100000
   14      H      -0.9921220000    -2.5333290000    -0.1445900000
   15      H       0.2384780000     2.8306710000    -1.1416900000
 ----------------------------------------------------------------

   10    -629.4199347769      5.52e-07  Convergence criterion met
 Total energy in the final basis set =     -629.4199347769
        RIMP2         total energy =      -630.5977887831 a.u.

                    Orbital Energies (a.u.)
 --------------------------------------------------------------

 Alpha MOs
 -- Occupied --
-91.9805 -11.2749 -11.2578 -11.2470 -11.2291 -11.2268 -11.2159  -8.9804
 -6.6613  -6.6607  -6.6601  -1.1610  -1.0551  -0.9953  -0.9464  -0.8816
 -0.7479  -0.7186  -0.6484  -0.5910  -0.5755  -0.5657  -0.5537  -0.5474
 -0.5091  -0.4857  -0.4650  -0.4443  -0.3384  -0.3035

          Ground-State Mulliken Net Atomic Charges

     Atom                 Charge (a.u.)
  ----------------------------------------
      1 C                     0.057658
      2 C                    -0.265889
      3 C                     0.041331
      4 H                     0.180246
      5 C                    -0.260225
      6 S                    -0.003174
      7 C                    -0.273373
      8 H                     0.101884
      9 H                     0.106891
     10 H                     0.106869
     11 C                    -0.370603
     12 H                     0.113750
     13 H                     0.144719
     14 H                     0.124465
     15 H                     0.195453
  ----------------------------------------
  Sum of atomic charges =     0.000000

                    Cartesian Multipole Moments
 -----------------------------------------------------------------
    Charge (ESU x 10^10)
                -0.0000
    Dipole Moment (Debye)
         X       0.2309      Y       0.0247      Z       0.8504
       Tot       0.8815
    Quadrupole Moments (Debye-Ang)
        XX     -53.6585     XY       0.4072     YY     -42.2531
        XZ       0.1411     YZ       1.4631     ZZ     -48.8299

 Total job time:  158.22s(wall), 157.21s(cpu)
        *  Thank you very much for using Q-Chem.  Have a nice day.  *
