 Q-Chem 5.4, Q-Chem, Inc., Pleasanton, CA (2021)
 Q-Chem 5.4.0 for Intel X86 EM64T Linux

User input:
--------------------------------------------------------------
$molecule
0 1
C	-0.178498	-0.553189	0.018946
C	0.045002	0.281011	1.118346
C	0.403202	1.617711	0.795646
H	-0.050398	-0.075289	2.155046
C	0.460402	1.830811	-0.593554
S	0.065402	0.357111	-1.467854
C	0.684802	2.668411	1.833546
H	0.574602	2.257311	2.855646
H	-0.007798	3.531411	1.745146
H	1.716102	3.069411	1.745146
C	-0.178498	-1.993889	0.018946
H	0.361602	-1.994089	-0.916254
H	-0.887898	-2.697689	-0.390654
H	0.641702	-2.512789	0.492546
H	0.706102	2.747711	-1.142654
$end

$rem
JOBTYPE		SP
EXCHANGE	HF
CORRELATION	pRIMP2
BASIS		cc-pvtz
METHOD		rimp2
AUX_BASIS	rimp2-cc-pvtz
SOLVENT_METHOD	PCM
PURECART	11111
SYMMETRY	false
MEM_TOTAL	110000
SCF_CONVERGENCE = 6
THRESH=10
$end

$solvent
dielectric 4.90
$end
--------------------------------------------------------------

             Standard Nuclear Orientation (Angstroms)
    I     Atom           X                Y                Z
 ----------------------------------------------------------------
    1      C      -0.1784980000    -0.5531890000     0.0189460000
    2      C       0.0450020000     0.2810110000     1.1183460000
    3      C       0.4032020000     1.6177110000     0.7956460000
    4      H      -0.0503980000    -0.0752890000     2.1550460000
    5      C       0.4604020000     1.8308110000    -0.5935540000
    6      S       0.0654020000     0.3571110000    -1.4678540000
    7      C       0.6848020000     2.6684110000     1.8335460000
    8      H       0.5746020000     2.2573110000     2.8556460000
    9      H      -0.0077980000     3.5314110000     1.7451460000
   10      H       1.7161020000     3.0694110000     1.7451460000
   11      C      -0.1784980000    -1.9938890000     0.0189460000
   12      H       0.3616020000    -1.9940890000    -0.9162540000
   13      H      -0.8878980000    -2.6976890000    -0.3906540000
   14      H       0.6417020000    -2.5127890000     0.4925460000
   15      H       0.7061020000     2.7477110000    -1.1426540000
 ----------------------------------------------------------------

   10    -629.4176635298      5.88e-07  Convergence criterion met
 Total energy in the final basis set =     -629.4176635298
        RIMP2         total energy =      -630.5955681138 a.u.

                    Orbital Energies (a.u.)
 --------------------------------------------------------------

 Alpha MOs
 -- Occupied --
-91.9781 -11.2766 -11.2569 -11.2469 -11.2296 -11.2269 -11.2165  -8.9782
 -6.6592  -6.6586  -6.6580  -1.1617  -1.0556  -0.9953  -0.9453  -0.8814
 -0.7476  -0.7190  -0.6474  -0.5913  -0.5763  -0.5659  -0.5521  -0.5477
 -0.5087  -0.4879  -0.4643  -0.4470  -0.3387  -0.2993

          Ground-State Mulliken Net Atomic Charges

     Atom                 Charge (a.u.)
  ----------------------------------------
      1 C                     0.054103
      2 C                    -0.284997
      3 C                     0.049646
      4 H                     0.179962
      5 C                    -0.260212
      6 S                    -0.003503
      7 C                    -0.272226
      8 H                     0.101660
      9 H                     0.107305
     10 H                     0.106827
     11 C                    -0.373777
     12 H                     0.121691
     13 H                     0.145266
     14 H                     0.133932
     15 H                     0.194322
  ----------------------------------------
  Sum of atomic charges =     0.000000

                    Cartesian Multipole Moments
 -----------------------------------------------------------------
    Charge (ESU x 10^10)
                -0.0000
    Dipole Moment (Debye)
         X       0.7351      Y      -0.1282      Z       0.9314
       Tot       1.1935
    Quadrupole Moments (Debye-Ang)
        XX     -53.4485     XY       1.5586     YY     -42.8051
        XZ       0.4078     YZ       1.4687     ZZ     -48.7246

 Total job time:  155.65s(wall), 154.79s(cpu)
        *  Thank you very much for using Q-Chem.  Have a nice day.  *
