 Q-Chem 5.4, Q-Chem, Inc., Pleasanton, CA (2021)
 Q-Chem 5.4.0 for Intel X86 EM64T Linux

User input:
--------------------------------------------------------------
$molecule
0 1
C	-0.337768	-0.485419	0.010353
C	0.094032	0.262481	1.109753
C	0.786032	1.460981	0.787053
H	-0.090368	-0.056919	2.146453
C	0.896332	1.652081	-0.602147
S	0.133432	0.330681	-1.476447
C	1.329932	2.402981	1.824953
H	1.117132	2.034381	2.847053
H	0.884232	3.415781	1.736553
H	2.429932	2.523381	1.736553
C	-0.337768	-1.926119	0.010353
H	-0.525468	-1.926319	1.073953
H	0.468932	-2.629919	0.152653
H	-1.270468	-2.445019	-0.154147
H	1.371032	2.474081	-1.151247
$end

$rem
JOBTYPE		SP
EXCHANGE	HF
CORRELATION	pRIMP2
BASIS		cc-pvtz
METHOD		rimp2
AUX_BASIS	rimp2-cc-pvtz
SOLVENT_METHOD	PCM
PURECART	11111
SYMMETRY	false
MEM_TOTAL	110000
SCF_CONVERGENCE = 6
THRESH=10
$end

$solvent
dielectric 4.90
$end
--------------------------------------------------------------

             Standard Nuclear Orientation (Angstroms)
    I     Atom           X                Y                Z
 ----------------------------------------------------------------
    1      C      -0.3377680000    -0.4854190000     0.0103530000
    2      C       0.0940320000     0.2624810000     1.1097530000
    3      C       0.7860320000     1.4609810000     0.7870530000
    4      H      -0.0903680000    -0.0569190000     2.1464530000
    5      C       0.8963320000     1.6520810000    -0.6021470000
    6      S       0.1334320000     0.3306810000    -1.4764470000
    7      C       1.3299320000     2.4029810000     1.8249530000
    8      H       1.1171320000     2.0343810000     2.8470530000
    9      H       0.8842320000     3.4157810000     1.7365530000
   10      H       2.4299320000     2.5233810000     1.7365530000
   11      C      -0.3377680000    -1.9261190000     0.0103530000
   12      H      -0.5254680000    -1.9263190000     1.0739530000
   13      H       0.4689320000    -2.6299190000     0.1526530000
   14      H      -1.2704680000    -2.4450190000    -0.1541470000
   15      H       1.3710320000     2.4740810000    -1.1512470000
 ----------------------------------------------------------------

   10    -629.4060445284      5.13e-07  Convergence criterion met
 Total energy in the final basis set =     -629.4060445284
        RIMP2         total energy =      -630.5881706734 a.u.

                    Orbital Energies (a.u.)
 --------------------------------------------------------------

 Alpha MOs
 -- Occupied --
-91.9736 -11.2684 -11.2641 -11.2476 -11.2395 -11.2279 -11.2130  -8.9740
 -6.6549  -6.6543  -6.6538  -1.1635  -1.0535  -0.9996  -0.9384  -0.8843
 -0.7433  -0.7265  -0.6474  -0.5881  -0.5800  -0.5685  -0.5569  -0.5418
 -0.5143  -0.4785  -0.4661  -0.4329  -0.3374  -0.3048

          Ground-State Mulliken Net Atomic Charges

     Atom                 Charge (a.u.)
  ----------------------------------------
      1 C                     0.006638
      2 C                    -0.247685
      3 C                     0.033467
      4 H                     0.177648
      5 C                    -0.237513
      6 S                    -0.003638
      7 C                    -0.270162
      8 H                     0.101351
      9 H                     0.106879
     10 H                     0.106663
     11 C                    -0.352843
     12 H                     0.113367
     13 H                     0.150030
     14 H                     0.121840
     15 H                     0.193957
  ----------------------------------------
  Sum of atomic charges =     0.000000

                    Cartesian Multipole Moments
 -----------------------------------------------------------------
    Charge (ESU x 10^10)
                -0.0000
    Dipole Moment (Debye)
         X       0.8187      Y       0.1625      Z       2.1946
       Tot       2.3480
    Quadrupole Moments (Debye-Ang)
        XX     -51.6094     XY       3.9746     YY     -44.7754
        XZ      -0.0504     YZ      -1.1155     ZZ     -48.7769

 Total job time:  158.63s(wall), 156.29s(cpu)
        *  Thank you very much for using Q-Chem.  Have a nice day.  *
