 Q-Chem 5.4, Q-Chem, Inc., Pleasanton, CA (2021)
 Q-Chem 5.4.0 for Intel X86 EM64T Linux

User input:
--------------------------------------------------------------
$molecule
0 1
C	-0.514887	-0.333972	0.013913
C	0.146713	0.221128	1.113313
C	1.206813	1.110628	0.790613
H	-0.135787	-0.015972	2.150013
C	1.375913	1.252428	-0.598587
S	0.207013	0.271728	-1.472887
C	2.040113	1.809828	1.828513
H	1.714013	1.536228	2.850613
H	1.967713	2.914028	1.740113
H	3.114913	1.546728	1.740113
C	-0.514887	-1.774672	0.013913
H	-1.529787	-1.774872	0.383213
H	-0.234787	-2.478472	0.783713
H	-0.838787	-2.293572	-0.876087
H	2.103013	1.862628	-1.147687
$end

$rem
JOBTYPE		SP
EXCHANGE	HF
CORRELATION	pRIMP2
BASIS		cc-pvtz
METHOD		rimp2
AUX_BASIS	rimp2-cc-pvtz
SOLVENT_METHOD	PCM
PURECART	11111
SYMMETRY	false
MEM_TOTAL	110000
SCF_CONVERGENCE = 6
THRESH=10
$end

$solvent
dielectric 4.90
$end
--------------------------------------------------------------

             Standard Nuclear Orientation (Angstroms)
    I     Atom           X                Y                Z
 ----------------------------------------------------------------
    1      C      -0.5148870000    -0.3339720000     0.0139130000
    2      C       0.1467130000     0.2211280000     1.1133130000
    3      C       1.2068130000     1.1106280000     0.7906130000
    4      H      -0.1357870000    -0.0159720000     2.1500130000
    5      C       1.3759130000     1.2524280000    -0.5985870000
    6      S       0.2070130000     0.2717280000    -1.4728870000
    7      C       2.0401130000     1.8098280000     1.8285130000
    8      H       1.7140130000     1.5362280000     2.8506130000
    9      H       1.9677130000     2.9140280000     1.7401130000
   10      H       3.1149130000     1.5467280000     1.7401130000
   11      C      -0.5148870000    -1.7746720000     0.0139130000
   12      H      -1.5297870000    -1.7748720000     0.3832130000
   13      H      -0.2347870000    -2.4784720000     0.7837130000
   14      H      -0.8387870000    -2.2935720000    -0.8760870000
   15      H       2.1030130000     1.8626280000    -1.1476870000
 ----------------------------------------------------------------

   11    -629.3635131522      4.17e-07  Convergence criterion met
 Total energy in the final basis set =     -629.3635131522
        RIMP2         total energy =      -630.5530236657 a.u.

                    Orbital Energies (a.u.)
 --------------------------------------------------------------

 Alpha MOs
 -- Occupied --
-91.9724 -11.2705 -11.2554 -11.2483 -11.2434 -11.2279 -11.2082  -8.9731
 -6.6540  -6.6531  -6.6528  -1.1669  -1.0539  -0.9970  -0.9395  -0.8825
 -0.7469  -0.7265  -0.6444  -0.5844  -0.5777  -0.5643  -0.5556  -0.5426
 -0.5165  -0.4915  -0.4591  -0.4286  -0.3362  -0.2869

          Ground-State Mulliken Net Atomic Charges

     Atom                 Charge (a.u.)
  ----------------------------------------
      1 C                    -0.049052
      2 C                    -0.196850
      3 C                     0.012272
      4 H                     0.179653
      5 C                    -0.213337
      6 S                     0.007764
      7 C                    -0.269375
      8 H                     0.101506
      9 H                     0.106898
     10 H                     0.105350
     11 C                    -0.389539
     12 H                     0.126635
     13 H                     0.153872
     14 H                     0.130647
     15 H                     0.193558
  ----------------------------------------
  Sum of atomic charges =     0.000000

                    Cartesian Multipole Moments
 -----------------------------------------------------------------
    Charge (ESU x 10^10)
                -0.0000
    Dipole Moment (Debye)
         X       1.1068      Y       0.0056      Z       1.8702
       Tot       2.1732
    Quadrupole Moments (Debye-Ang)
        XX     -49.0608     XY       5.6612     YY     -48.2584
        XZ       0.0425     YZ      -0.3804     ZZ     -47.9609

 Total job time:  169.98s(wall), 168.61s(cpu)
        *  Thank you very much for using Q-Chem.  Have a nice day.  *
