 Q-Chem 5.4, Q-Chem, Inc., Pleasanton, CA (2021)
 Q-Chem 5.4.0 for Intel X86 EM64T Linux

User input:
--------------------------------------------------------------
$molecule
0 1
C	-0.122690	-0.566010	0.014755
C	0.027310	0.284490	1.114155
C	0.267610	1.647390	0.791455
H	-0.036790	-0.078710	2.150855
C	0.306010	1.864690	-0.597745
S	0.041010	0.362090	-1.472045
C	0.456510	2.718590	1.829355
H	0.382610	2.299390	2.851455
H	-0.308690	3.517890	1.740955
H	1.449010	3.207890	1.740955
C	-0.122690	-2.006710	0.014755
H	0.940910	-2.006410	0.202455
H	-0.264990	-2.710510	0.821455
H	0.041810	-2.525610	-0.917945
H	0.470810	2.799390	-1.146845
$end

$rem
JOBTYPE		SP
EXCHANGE	HF
CORRELATION	pRIMP2
BASIS		cc-pvtz
METHOD		rimp2
AUX_BASIS	rimp2-cc-pvtz
SOLVENT_METHOD	PCM
PURECART	11111
SYMMETRY	false
MEM_TOTAL	110000
SCF_CONVERGENCE = 6
THRESH=10
$end

$solvent
dielectric 4.90
$end
--------------------------------------------------------------

   10    -629.4233762602      7.03e-07  Convergence criterion met
 Total energy in the final basis set =     -629.4233762602
        RIMP2         total energy =      -630.5988275626 a.u.
 Total job time:  158.27s(wall), 155.73s(cpu)
        *  Thank you very much for using Q-Chem.  Have a nice day.  *
 Q-Chem 5.4, Q-Chem, Inc., Pleasanton, CA (2021)
 Q-Chem 5.4.0 for Intel X86 EM64T Linux

User input:
--------------------------------------------------------------
$molecule
0 1
C	-0.122690	-0.566010	0.014755
C	0.027310	0.284490	1.114155
C	0.267610	1.647390	0.791455
H	-0.036790	-0.078710	2.150855
C	0.306010	1.864690	-0.597745
S	0.041010	0.362090	-1.472045
C	0.456510	2.718590	1.829355
H	0.382610	2.299390	2.851455
H	-0.308690	3.517890	1.740955
H	1.449010	3.207890	1.740955
C	-0.122690	-2.006710	0.014755
H	0.940910	-2.006410	0.202455
H	-0.264990	-2.710510	0.821455
H	0.041810	-2.525610	-0.917945
H	0.470810	2.799390	-1.146845
$end

$rem
JOBTYPE		SP
EXCHANGE	HF
CORRELATION	pRIMP2
BASIS		cc-pvtz
METHOD		rimp2
AUX_BASIS	rimp2-cc-pvtz
SOLVENT_METHOD	PCM
PURECART	11111
SYMMETRY	false
MEM_TOTAL	110000
SCF_CONVERGENCE = 6
THRESH=10
$end

$solvent
dielectric 4.90
$end
--------------------------------------------------------------

             Standard Nuclear Orientation (Angstroms)
    I     Atom           X                Y                Z
 ----------------------------------------------------------------
    1      C      -0.1226900000    -0.5660100000     0.0147550000
    2      C       0.0273100000     0.2844900000     1.1141550000
    3      C       0.2676100000     1.6473900000     0.7914550000
    4      H      -0.0367900000    -0.0787100000     2.1508550000
    5      C       0.3060100000     1.8646900000    -0.5977450000
    6      S       0.0410100000     0.3620900000    -1.4720450000
    7      C       0.4565100000     2.7185900000     1.8293550000
    8      H       0.3826100000     2.2993900000     2.8514550000
    9      H      -0.3086900000     3.5178900000     1.7409550000
   10      H       1.4490100000     3.2078900000     1.7409550000
   11      C      -0.1226900000    -2.0067100000     0.0147550000
   12      H       0.9409100000    -2.0064100000     0.2024550000
   13      H      -0.2649900000    -2.7105100000     0.8214550000
   14      H       0.0418100000    -2.5256100000    -0.9179450000
   15      H       0.4708100000     2.7993900000    -1.1468450000
 ----------------------------------------------------------------

   10    -629.4233762602      7.03e-07  Convergence criterion met
 Total energy in the final basis set =     -629.4233762602
        RIMP2         total energy =      -630.5988275626 a.u.

                    Orbital Energies (a.u.)
 --------------------------------------------------------------

 Alpha MOs
 -- Occupied --
-91.9794 -11.2859 -11.2485 -11.2470 -11.2264 -11.2225 -11.2217  -8.9791
 -6.6601  -6.6595  -6.6589  -1.1607  -1.0564  -0.9974  -0.9416  -0.8825
 -0.7435  -0.7189  -0.6497  -0.5870  -0.5748  -0.5673  -0.5554  -0.5459
 -0.5066  -0.4936  -0.4667  -0.4573  -0.3382  -0.2883

          Ground-State Mulliken Net Atomic Charges

     Atom                 Charge (a.u.)
  ----------------------------------------
      1 C                     0.063893
      2 C                    -0.310316
      3 C                     0.053109
      4 H                     0.174029
      5 C                    -0.284094
      6 S                     0.004737
      7 C                    -0.273755
      8 H                     0.101330
      9 H                     0.107274
     10 H                     0.107208
     11 C                    -0.383864
     12 H                     0.148705
     13 H                     0.162514
     14 H                     0.136368
     15 H                     0.192862
  ----------------------------------------
  Sum of atomic charges =     0.000000

                    Cartesian Multipole Moments
 -----------------------------------------------------------------
    Charge (ESU x 10^10)
                -0.0000
    Dipole Moment (Debye)
         X       0.9157      Y      -0.7660      Z       1.5005
       Tot       1.9175
    Quadrupole Moments (Debye-Ang)
        XX     -54.3035     XY       0.0186     YY     -42.0418
        XZ       0.0100     YZ      -0.0793     ZZ     -48.5694

 Total job time:  156.80s(wall), 155.03s(cpu)
        *  Thank you very much for using Q-Chem.  Have a nice day.  *
