 Q-Chem 5.4, Q-Chem, Inc., Pleasanton, CA (2021)
 Q-Chem 5.4.0 for Intel X86 EM64T Linux

User input:
--------------------------------------------------------------
$molecule
0 1
C	-0.282609	-0.512744	0.012353
C	0.082391	0.269956	1.111753
C	0.667291	1.524156	0.789053
H	-0.073509	-0.064344	2.148453
C	0.760591	1.724156	-0.600147
S	0.115691	0.341356	-1.474447
C	1.126991	2.509956	1.826953
H	0.947091	2.124256	2.849053
H	0.594691	3.480156	1.738553
H	2.212291	2.725856	1.738553
C	-0.282609	-1.953444	0.012353
H	-1.110009	-1.953644	0.706453
H	0.243891	-2.657244	0.639953
H	-0.891409	-2.472344	-0.713147
H	1.161691	2.584456	-1.149247
$end

$rem
JOBTYPE		SP
EXCHANGE	HF
CORRELATION	pRIMP2
BASIS		cc-pvtz
METHOD		rimp2
AUX_BASIS	rimp2-cc-pvtz
SOLVENT_METHOD	PCM
PURECART	11111
SYMMETRY	false
MEM_TOTAL	110000
SCF_CONVERGENCE = 6
THRESH=10
$end

$solvent
dielectric 4.90
$end
--------------------------------------------------------------

             Standard Nuclear Orientation (Angstroms)
    I     Atom           X                Y                Z
 ----------------------------------------------------------------
    1      C      -0.2826090000    -0.5127440000     0.0123530000
    2      C       0.0823910000     0.2699560000     1.1117530000
    3      C       0.6672910000     1.5241560000     0.7890530000
    4      H      -0.0735090000    -0.0643440000     2.1484530000
    5      C       0.7605910000     1.7241560000    -0.6001470000
    6      S       0.1156910000     0.3413560000    -1.4744470000
    7      C       1.1269910000     2.5099560000     1.8269530000
    8      H       0.9470910000     2.1242560000     2.8490530000
    9      H       0.5946910000     3.4801560000     1.7385530000
   10      H       2.2122910000     2.7258560000     1.7385530000
   11      C      -0.2826090000    -1.9534440000     0.0123530000
   12      H      -1.1100090000    -1.9536440000     0.7064530000
   13      H       0.2438910000    -2.6572440000     0.6399530000
   14      H      -0.8914090000    -2.4723440000    -0.7131470000
   15      H       1.1616910000     2.5844560000    -1.1492470000
 ----------------------------------------------------------------

   10    -629.4097464005      5.47e-07  Convergence criterion met
 Total energy in the final basis set =     -629.4097464005
        RIMP2         total energy =      -630.5904156048 a.u.

                    Orbital Energies (a.u.)
 --------------------------------------------------------------

 Alpha MOs
 -- Occupied --
-91.9753 -11.2745 -11.2574 -11.2476 -11.2326 -11.2272 -11.2158  -8.9754
 -6.6564  -6.6557  -6.6552  -1.1615  -1.0540  -0.9981  -0.9404  -0.8837
 -0.7433  -0.7225  -0.6482  -0.5862  -0.5762  -0.5646  -0.5595  -0.5432
 -0.5121  -0.4899  -0.4623  -0.4431  -0.3375  -0.2942

          Ground-State Mulliken Net Atomic Charges

     Atom                 Charge (a.u.)
  ----------------------------------------
      1 C                     0.030941
      2 C                    -0.282491
      3 C                     0.042271
      4 H                     0.177301
      5 C                    -0.252253
      6 S                     0.000177
      7 C                    -0.272302
      8 H                     0.101327
      9 H                     0.106930
     10 H                     0.106918
     11 C                    -0.373316
     12 H                     0.130149
     13 H                     0.157953
     14 H                     0.134168
     15 H                     0.192227
  ----------------------------------------
  Sum of atomic charges =     0.000000

                    Cartesian Multipole Moments
 -----------------------------------------------------------------
    Charge (ESU x 10^10)
                -0.0000
    Dipole Moment (Debye)
         X       0.1084      Y      -0.2108      Z       1.9445
       Tot       1.9589
    Quadrupole Moments (Debye-Ang)
        XX     -52.3405     XY       4.5022     YY     -43.8800
        XZ       0.2899     YZ      -0.7442     ZZ     -48.5834

 Total job time:  157.00s(wall), 155.27s(cpu)
        *  Thank you very much for using Q-Chem.  Have a nice day.  *
