 Q-Chem 5.4, Q-Chem, Inc., Pleasanton, CA (2021)
 Q-Chem 5.4.0 for Intel X86 EM64T Linux

User input:
--------------------------------------------------------------
$molecule
0 1
C	-0.004896	-0.576309	0.015308
C	-0.004896	0.287291	1.114708
C	-0.004796	1.671191	0.792008
H	-0.004896	-0.081509	2.151408
C	-0.004796	1.891891	-0.597192
S	-0.004896	0.366091	-1.471492
C	-0.004796	2.758991	1.829908
H	-0.004796	2.333291	2.852008
H	-0.897196	3.413291	1.741508
H	0.887604	3.413191	1.741508
C	-0.004896	-2.017009	0.015308
H	1.058704	-2.017209	-0.172092
H	-0.147096	-2.720809	-0.791492
H	0.159604	-2.535909	0.948008
H	-0.004796	2.841091	-1.146292
$end

$rem
JOBTYPE		SP
EXCHANGE	HF
CORRELATION	pRIMP2
BASIS		cc-pvtz
METHOD		rimp2
AUX_BASIS	rimp2-cc-pvtz
SOLVENT_METHOD	PCM
PURECART	11111
SYMMETRY	false
MEM_TOTAL	110000
SCF_CONVERGENCE = 6
THRESH=10
$end

$solvent
dielectric 4.90
$end
--------------------------------------------------------------

   10    -629.4251349164      6.96e-07  Convergence criterion met
 Total energy in the final basis set =     -629.4251349164
        RIMP2         total energy =      -630.6001647195 a.u.
 Total job time:  158.65s(wall), 156.39s(cpu)
        *  Thank you very much for using Q-Chem.  Have a nice day.  *
 Q-Chem 5.4, Q-Chem, Inc., Pleasanton, CA (2021)
 Q-Chem 5.4.0 for Intel X86 EM64T Linux

User input:
--------------------------------------------------------------
$molecule
0 1
C	-0.004896	-0.576309	0.015308
C	-0.004896	0.287291	1.114708
C	-0.004796	1.671191	0.792008
H	-0.004896	-0.081509	2.151408
C	-0.004796	1.891891	-0.597192
S	-0.004896	0.366091	-1.471492
C	-0.004796	2.758991	1.829908
H	-0.004796	2.333291	2.852008
H	-0.897196	3.413291	1.741508
H	0.887604	3.413191	1.741508
C	-0.004896	-2.017009	0.015308
H	1.058704	-2.017209	-0.172092
H	-0.147096	-2.720809	-0.791492
H	0.159604	-2.535909	0.948008
H	-0.004796	2.841091	-1.146292
$end

$rem
JOBTYPE		SP
EXCHANGE	HF
CORRELATION	pRIMP2
BASIS		cc-pvtz
METHOD		rimp2
AUX_BASIS	rimp2-cc-pvtz
SOLVENT_METHOD	PCM
PURECART	11111
SYMMETRY	false
MEM_TOTAL	110000
SCF_CONVERGENCE = 6
THRESH=10
$end

$solvent
dielectric 4.90
$end
--------------------------------------------------------------

             Standard Nuclear Orientation (Angstroms)
    I     Atom           X                Y                Z
 ----------------------------------------------------------------
    1      C      -0.0048960000    -0.5763090000     0.0153080000
    2      C      -0.0048960000     0.2872910000     1.1147080000
    3      C      -0.0047960000     1.6711910000     0.7920080000
    4      H      -0.0048960000    -0.0815090000     2.1514080000
    5      C      -0.0047960000     1.8918910000    -0.5971920000
    6      S      -0.0048960000     0.3660910000    -1.4714920000
    7      C      -0.0047960000     2.7589910000     1.8299080000
    8      H      -0.0047960000     2.3332910000     2.8520080000
    9      H      -0.8971960000     3.4132910000     1.7415080000
   10      H       0.8876040000     3.4131910000     1.7415080000
   11      C      -0.0048960000    -2.0170090000     0.0153080000
   12      H       1.0587040000    -2.0172090000    -0.1720920000
   13      H      -0.1470960000    -2.7208090000    -0.7914920000
   14      H       0.1596040000    -2.5359090000     0.9480080000
   15      H      -0.0047960000     2.8410910000    -1.1462920000
 ----------------------------------------------------------------

   10    -629.4251349164      6.96e-07  Convergence criterion met
 Total energy in the final basis set =     -629.4251349164
        RIMP2         total energy =      -630.6001647195 a.u.

                    Orbital Energies (a.u.)
 --------------------------------------------------------------

 Alpha MOs
 -- Occupied --
-91.9776 -11.2860 -11.2489 -11.2468 -11.2264 -11.2235 -11.2225  -8.9775
 -6.6585  -6.6580  -6.6573  -1.1602  -1.0564  -0.9972  -0.9425  -0.8826
 -0.7443  -0.7185  -0.6478  -0.5897  -0.5756  -0.5697  -0.5513  -0.5466
 -0.5077  -0.4935  -0.4656  -0.4562  -0.3388  -0.2888

          Ground-State Mulliken Net Atomic Charges

     Atom                 Charge (a.u.)
  ----------------------------------------
      1 C                     0.063156
      2 C                    -0.304201
      3 C                     0.047351
      4 H                     0.178351
      5 C                    -0.277750
      6 S                    -0.005264
      7 C                    -0.274412
      8 H                     0.101281
      9 H                     0.107288
     10 H                     0.107428
     11 C                    -0.381060
     12 H                     0.142008
     13 H                     0.161838
     14 H                     0.141110
     15 H                     0.192875
  ----------------------------------------
  Sum of atomic charges =     0.000000

                    Cartesian Multipole Moments
 -----------------------------------------------------------------
    Charge (ESU x 10^10)
                -0.0000
    Dipole Moment (Debye)
         X       0.7303      Y      -0.7480      Z       1.2886
       Tot       1.6593
    Quadrupole Moments (Debye-Ang)
        XX     -54.4027     XY      -1.5119     YY     -41.6399
        XZ       0.1302     YZ       0.7496     ZZ     -48.6203

 Total job time:  156.46s(wall), 155.17s(cpu)
        *  Thank you very much for using Q-Chem.  Have a nice day.  *
