 Q-Chem 5.4, Q-Chem, Inc., Pleasanton, CA (2021)
 Q-Chem 5.4.0 for Intel X86 EM64T Linux

User input:
--------------------------------------------------------------
$molecule
0 1
C	-0.288623	-0.512744	0.010542
C	0.076377	0.269956	1.109942
C	0.661277	1.524156	0.787242
H	-0.079523	-0.064344	2.146642
C	0.754577	1.724156	-0.601958
S	0.109677	0.341356	-1.476258
C	1.120977	2.509956	1.825142
H	0.941077	2.124256	2.847242
H	0.588677	3.480156	1.736742
H	2.206277	2.725856	1.736742
C	-0.288623	-1.953444	0.010542
H	0.251277	-1.953644	0.945942
H	0.420877	-2.657244	-0.398958
H	-1.108823	-2.472344	0.484142
H	1.155677	2.584456	-1.151058
$end

$rem
JOBTYPE		SP
EXCHANGE	HF
CORRELATION	pRIMP2
BASIS		cc-pvtz
METHOD		rimp2
AUX_BASIS	rimp2-cc-pvtz
SOLVENT_METHOD	PCM
PURECART	11111
SYMMETRY	false
MEM_TOTAL	110000
SCF_CONVERGENCE = 6
THRESH=10
$end

$solvent
dielectric 4.90
$end
--------------------------------------------------------------

             Standard Nuclear Orientation (Angstroms)
    I     Atom           X                Y                Z
 ----------------------------------------------------------------
    1      C      -0.2886230000    -0.5127440000     0.0105420000
    2      C       0.0763770000     0.2699560000     1.1099420000
    3      C       0.6612770000     1.5241560000     0.7872420000
    4      H      -0.0795230000    -0.0643440000     2.1466420000
    5      C       0.7545770000     1.7241560000    -0.6019580000
    6      S       0.1096770000     0.3413560000    -1.4762580000
    7      C       1.1209770000     2.5099560000     1.8251420000
    8      H       0.9410770000     2.1242560000     2.8472420000
    9      H       0.5886770000     3.4801560000     1.7367420000
   10      H       2.2062770000     2.7258560000     1.7367420000
   11      C      -0.2886230000    -1.9534440000     0.0105420000
   12      H       0.2512770000    -1.9536440000     0.9459420000
   13      H       0.4208770000    -2.6572440000    -0.3989580000
   14      H      -1.1088230000    -2.4723440000     0.4841420000
   15      H       1.1556770000     2.5844560000    -1.1510580000
 ----------------------------------------------------------------

   10    -629.4080764302      5.17e-07  Convergence criterion met
 Total energy in the final basis set =     -629.4080764302
        RIMP2         total energy =      -630.5891228955 a.u.

                    Orbital Energies (a.u.)
 --------------------------------------------------------------

 Alpha MOs
 -- Occupied --
-91.9766 -11.2754 -11.2574 -11.2475 -11.2328 -11.2275 -11.2143  -8.9766
 -6.6575  -6.6569  -6.6564  -1.1628  -1.0543  -0.9993  -0.9381  -0.8837
 -0.7426  -0.7242  -0.6470  -0.5901  -0.5768  -0.5710  -0.5566  -0.5425
 -0.5122  -0.4771  -0.4682  -0.4438  -0.3357  -0.2981

          Ground-State Mulliken Net Atomic Charges

     Atom                 Charge (a.u.)
  ----------------------------------------
      1 C                     0.034006
      2 C                    -0.260916
      3 C                     0.032223
      4 H                     0.175758
      5 C                    -0.253289
      6 S                    -0.000534
      7 C                    -0.271406
      8 H                     0.101273
      9 H                     0.107167
     10 H                     0.106530
     11 C                    -0.383585
     12 H                     0.136318
     13 H                     0.157921
     14 H                     0.126199
     15 H                     0.192334
  ----------------------------------------
  Sum of atomic charges =     0.000000

                    Cartesian Multipole Moments
 -----------------------------------------------------------------
    Charge (ESU x 10^10)
                -0.0000
    Dipole Moment (Debye)
         X       0.9781      Y      -0.1572      Z       2.0753
       Tot       2.2996
    Quadrupole Moments (Debye-Ang)
        XX     -52.6341     XY       2.4852     YY     -44.0908
        XZ      -0.3018     YZ      -0.8738     ZZ     -48.6584

 Total job time:  175.53s(wall), 156.83s(cpu)
        *  Thank you very much for using Q-Chem.  Have a nice day.  *
