 Q-Chem 5.4, Q-Chem, Inc., Pleasanton, CA (2021)
 Q-Chem 5.4.0 for Intel X86 EM64T Linux

User input:
--------------------------------------------------------------
$molecule
0 1
C	-0.003578	-0.576309	0.018379
C	-0.003578	0.287291	1.117779
C	-0.003478	1.671191	0.795079
H	-0.003578	-0.081509	2.154479
C	-0.003478	1.891891	-0.594121
S	-0.003578	0.366091	-1.468421
C	-0.003478	2.758991	1.832979
H	-0.003478	2.333291	2.855079
H	-0.895878	3.413291	1.744579
H	0.888922	3.413191	1.744579
C	-0.003578	-2.017009	0.018379
H	0.690722	-2.017209	-0.808921
H	-0.631078	-2.720809	-0.508221
H	0.722022	-2.535909	0.627179
H	-0.003478	2.841091	-1.143221
$end

$rem
JOBTYPE		SP
EXCHANGE	HF
CORRELATION	pRIMP2
BASIS		cc-pvtz
METHOD		rimp2
AUX_BASIS	rimp2-cc-pvtz
SOLVENT_METHOD	PCM
PURECART	11111
SYMMETRY	false
MEM_TOTAL	110000
SCF_CONVERGENCE = 6
THRESH=10
$end

$solvent
dielectric 4.90
$end
--------------------------------------------------------------

   10    -629.4227278385      5.99e-07  Convergence criterion met
 Total energy in the final basis set =     -629.4227278385
        RIMP2         total energy =      -630.5993248179 a.u.
 Total job time:  159.38s(wall), 156.86s(cpu)
        *  Thank you very much for using Q-Chem.  Have a nice day.  *
 Q-Chem 5.4, Q-Chem, Inc., Pleasanton, CA (2021)
 Q-Chem 5.4.0 for Intel X86 EM64T Linux

User input:
--------------------------------------------------------------
$molecule
0 1
C	-0.003578	-0.576309	0.018379
C	-0.003578	0.287291	1.117779
C	-0.003478	1.671191	0.795079
H	-0.003578	-0.081509	2.154479
C	-0.003478	1.891891	-0.594121
S	-0.003578	0.366091	-1.468421
C	-0.003478	2.758991	1.832979
H	-0.003478	2.333291	2.855079
H	-0.895878	3.413291	1.744579
H	0.888922	3.413191	1.744579
C	-0.003578	-2.017009	0.018379
H	0.690722	-2.017209	-0.808921
H	-0.631078	-2.720809	-0.508221
H	0.722022	-2.535909	0.627179
H	-0.003478	2.841091	-1.143221
$end

$rem
JOBTYPE		SP
EXCHANGE	HF
CORRELATION	pRIMP2
BASIS		cc-pvtz
METHOD		rimp2
AUX_BASIS	rimp2-cc-pvtz
SOLVENT_METHOD	PCM
PURECART	11111
SYMMETRY	false
MEM_TOTAL	110000
SCF_CONVERGENCE = 6
THRESH=10
$end

$solvent
dielectric 4.90
$end
--------------------------------------------------------------

             Standard Nuclear Orientation (Angstroms)
    I     Atom           X                Y                Z
 ----------------------------------------------------------------
    1      C      -0.0035780000    -0.5763090000     0.0183790000
    2      C      -0.0035780000     0.2872910000     1.1177790000
    3      C      -0.0034780000     1.6711910000     0.7950790000
    4      H      -0.0035780000    -0.0815090000     2.1544790000
    5      C      -0.0034780000     1.8918910000    -0.5941210000
    6      S      -0.0035780000     0.3660910000    -1.4684210000
    7      C      -0.0034780000     2.7589910000     1.8329790000
    8      H      -0.0034780000     2.3332910000     2.8550790000
    9      H      -0.8958780000     3.4132910000     1.7445790000
   10      H       0.8889220000     3.4131910000     1.7445790000
   11      C      -0.0035780000    -2.0170090000     0.0183790000
   12      H       0.6907220000    -2.0172090000    -0.8089210000
   13      H      -0.6310780000    -2.7208090000    -0.5082210000
   14      H       0.7220220000    -2.5359090000     0.6271790000
   15      H      -0.0034780000     2.8410910000    -1.1432210000
 ----------------------------------------------------------------

   10    -629.4227278385      5.99e-07  Convergence criterion met
 Total energy in the final basis set =     -629.4227278385
        RIMP2         total energy =      -630.5993248179 a.u.

                    Orbital Energies (a.u.)
 --------------------------------------------------------------

 Alpha MOs
 -- Occupied --
-91.9786 -11.2793 -11.2547 -11.2469 -11.2276 -11.2267 -11.2182  -8.9786
 -6.6596  -6.6591  -6.6584  -1.1607  -1.0555  -0.9959  -0.9452  -0.8820
 -0.7466  -0.7185  -0.6477  -0.5912  -0.5757  -0.5675  -0.5513  -0.5475
 -0.5085  -0.4886  -0.4650  -0.4503  -0.3390  -0.2971

          Ground-State Mulliken Net Atomic Charges

     Atom                 Charge (a.u.)
  ----------------------------------------
      1 C                     0.053094
      2 C                    -0.273163
      3 C                     0.038111
      4 H                     0.181196
      5 C                    -0.260761
      6 S                    -0.005093
      7 C                    -0.273464
      8 H                     0.101545
      9 H                     0.107203
     10 H                     0.107046
     11 C                    -0.371421
     12 H                     0.120333
     13 H                     0.145593
     14 H                     0.135638
     15 H                     0.194142
  ----------------------------------------
  Sum of atomic charges =     0.000000

                    Cartesian Multipole Moments
 -----------------------------------------------------------------
    Charge (ESU x 10^10)
                -0.0000
    Dipole Moment (Debye)
         X       0.4464      Y      -0.2492      Z       0.9647
       Tot       1.0918
    Quadrupole Moments (Debye-Ang)
        XX     -54.0028     XY      -0.8937     YY     -41.9727
        XZ       0.3246     YZ       1.3918     ZZ     -48.7375

 Total job time:  159.30s(wall), 154.87s(cpu)
        *  Thank you very much for using Q-Chem.  Have a nice day.  *
