 Q-Chem 5.4, Q-Chem, Inc., Pleasanton, CA (2021)
 Q-Chem 5.4.0 for Intel X86 EM64T Linux

User input:
--------------------------------------------------------------
$molecule
0 1
C	-0.170818	-0.553189	0.013913
C	0.052682	0.281011	1.113313
C	0.410882	1.617711	0.790613
H	-0.042718	-0.075289	2.150013
C	0.468082	1.830811	-0.598587
S	0.073082	0.357111	-1.472887
C	0.692482	2.668411	1.828513
H	0.582282	2.257311	2.850613
H	-0.000118	3.531411	1.740113
H	1.723782	3.069411	1.740113
C	-0.170818	-1.993889	0.013913
H	-1.185718	-1.994089	0.383213
H	0.109282	-2.697689	0.783713
H	-0.494718	-2.512789	-0.876087
H	0.713782	2.747711	-1.147687
$end

$rem
JOBTYPE		SP
EXCHANGE	HF
CORRELATION	pRIMP2
BASIS		cc-pvtz
METHOD		rimp2
AUX_BASIS	rimp2-cc-pvtz
SOLVENT_METHOD	PCM
PURECART	11111
SYMMETRY	false
MEM_TOTAL	110000
SCF_CONVERGENCE = 6
THRESH=10
$end

$solvent
dielectric 4.90
$end
--------------------------------------------------------------

             Standard Nuclear Orientation (Angstroms)
    I     Atom           X                Y                Z
 ----------------------------------------------------------------
    1      C      -0.1708180000    -0.5531890000     0.0139130000
    2      C       0.0526820000     0.2810110000     1.1133130000
    3      C       0.4108820000     1.6177110000     0.7906130000
    4      H      -0.0427180000    -0.0752890000     2.1500130000
    5      C       0.4680820000     1.8308110000    -0.5985870000
    6      S       0.0730820000     0.3571110000    -1.4728870000
    7      C       0.6924820000     2.6684110000     1.8285130000
    8      H       0.5822820000     2.2573110000     2.8506130000
    9      H      -0.0001180000     3.5314110000     1.7401130000
   10      H       1.7237820000     3.0694110000     1.7401130000
   11      C      -0.1708180000    -1.9938890000     0.0139130000
   12      H      -1.1857180000    -1.9940890000     0.3832130000
   13      H       0.1092820000    -2.6976890000     0.7837130000
   14      H      -0.4947180000    -2.5127890000    -0.8760870000
   15      H       0.7137820000     2.7477110000    -1.1476870000
 ----------------------------------------------------------------

   10    -629.4174396857      6.40e-07  Convergence criterion met
 Total energy in the final basis set =     -629.4174396857
        RIMP2         total energy =      -630.5950723761 a.u.

                    Orbital Energies (a.u.)
 --------------------------------------------------------------

 Alpha MOs
 -- Occupied --
-91.9778 -11.2817 -11.2510 -11.2472 -11.2265 -11.2256 -11.2193  -8.9776
 -6.6586  -6.6580  -6.6574  -1.1602  -1.0552  -0.9976  -0.9416  -0.8831
 -0.7432  -0.7199  -0.6490  -0.5861  -0.5735  -0.5668  -0.5576  -0.5446
 -0.5094  -0.4937  -0.4620  -0.4533  -0.3377  -0.2893

          Ground-State Mulliken Net Atomic Charges

     Atom                 Charge (a.u.)
  ----------------------------------------
      1 C                     0.057957
      2 C                    -0.310895
      3 C                     0.053449
      4 H                     0.174820
      5 C                    -0.273640
      6 S                     0.004857
      7 C                    -0.273560
      8 H                     0.101311
      9 H                     0.107137
     10 H                     0.107195
     11 C                    -0.378130
     12 H                     0.138624
     13 H                     0.162166
     14 H                     0.136789
     15 H                     0.191920
  ----------------------------------------
  Sum of atomic charges =     0.000000

                    Cartesian Multipole Moments
 -----------------------------------------------------------------
    Charge (ESU x 10^10)
                -0.0000
    Dipole Moment (Debye)
         X      -0.3819      Y      -0.5696      Z       1.6635
       Tot       1.7993
    Quadrupole Moments (Debye-Ang)
        XX     -53.5434     XY       3.6600     YY     -42.5649
        XZ       0.2174     YZ      -0.3151     ZZ     -48.5310

 Total job time:  155.49s(wall), 154.64s(cpu)
        *  Thank you very much for using Q-Chem.  Have a nice day.  *
