 Q-Chem 5.4, Q-Chem, Inc., Pleasanton, CA (2021)
 Q-Chem 5.4.0 for Intel X86 EM64T Linux

User input:
--------------------------------------------------------------
$molecule
0 1
C	-0.521843	-0.333972	0.019394
C	0.139757	0.221128	1.118794
C	1.199857	1.110628	0.796094
H	-0.142743	-0.015972	2.155494
C	1.368957	1.252428	-0.593106
S	0.200057	0.271728	-1.467406
C	2.033157	1.809828	1.833994
H	1.707057	1.536228	2.856094
H	1.960757	2.914028	1.745594
H	3.107957	1.546728	1.745594
C	-0.521843	-1.774672	0.019394
H	-0.152343	-1.774872	-0.995406
H	-1.291643	-2.478472	-0.260806
H	0.368157	-2.293572	0.343294
H	2.096057	1.862628	-1.142206
$end

$rem
JOBTYPE		SP
EXCHANGE	HF
CORRELATION	pRIMP2
BASIS		cc-pvtz
METHOD		rimp2
AUX_BASIS	rimp2-cc-pvtz
SOLVENT_METHOD	PCM
PURECART	11111
SYMMETRY	false
MEM_TOTAL	110000
SCF_CONVERGENCE = 6
THRESH=10
$end

$solvent
dielectric 4.90
$end
--------------------------------------------------------------

             Standard Nuclear Orientation (Angstroms)
    I     Atom           X                Y                Z
 ----------------------------------------------------------------
    1      C      -0.5218430000    -0.3339720000     0.0193940000
    2      C       0.1397570000     0.2211280000     1.1187940000
    3      C       1.1998570000     1.1106280000     0.7960940000
    4      H      -0.1427430000    -0.0159720000     2.1554940000
    5      C       1.3689570000     1.2524280000    -0.5931060000
    6      S       0.2000570000     0.2717280000    -1.4674060000
    7      C       2.0331570000     1.8098280000     1.8339940000
    8      H       1.7070570000     1.5362280000     2.8560940000
    9      H       1.9607570000     2.9140280000     1.7455940000
   10      H       3.1079570000     1.5467280000     1.7455940000
   11      C      -0.5218430000    -1.7746720000     0.0193940000
   12      H      -0.1523430000    -1.7748720000    -0.9954060000
   13      H      -1.2916430000    -2.4784720000    -0.2608060000
   14      H       0.3681570000    -2.2935720000     0.3432940000
   15      H       2.0960570000     1.8626280000    -1.1422060000
 ----------------------------------------------------------------

   10    -629.3643470435      8.01e-07  Convergence criterion met
 Total energy in the final basis set =     -629.3643470435
        RIMP2         total energy =      -630.5526022856 a.u.

                    Orbital Energies (a.u.)
 --------------------------------------------------------------

 Alpha MOs
 -- Occupied --
-91.9734 -11.2741 -11.2556 -11.2476 -11.2451 -11.2282 -11.2072  -8.9747
 -6.6555  -6.6547  -6.6543  -1.1710  -1.0573  -0.9945  -0.9440  -0.8782
 -0.7536  -0.7250  -0.6442  -0.5907  -0.5800  -0.5654  -0.5512  -0.5483
 -0.5149  -0.4735  -0.4636  -0.4363  -0.3330  -0.3008

          Ground-State Mulliken Net Atomic Charges

     Atom                 Charge (a.u.)
  ----------------------------------------
      1 C                    -0.050881
      2 C                    -0.179069
      3 C                     0.011416
      4 H                     0.181221
      5 C                    -0.212172
      6 S                     0.000394
      7 C                    -0.268715
      8 H                     0.101893
      9 H                     0.107237
     10 H                     0.104762
     11 C                    -0.376464
     12 H                     0.130032
     13 H                     0.126332
     14 H                     0.127082
     15 H                     0.196934
  ----------------------------------------
  Sum of atomic charges =     0.000000

                    Cartesian Multipole Moments
 -----------------------------------------------------------------
    Charge (ESU x 10^10)
                -0.0000
    Dipole Moment (Debye)
         X       2.0699      Y       0.1936      Z       1.0786
       Tot       2.3421
    Quadrupole Moments (Debye-Ang)
        XX     -49.4216     XY       4.1666     YY     -48.5345
        XZ       0.2879     YZ       1.3119     ZZ     -48.1012

 Total job time:  162.91s(wall), 161.45s(cpu)
        *  Thank you very much for using Q-Chem.  Have a nice day.  *
