 Q-Chem 5.4, Q-Chem, Inc., Pleasanton, CA (2021)
 Q-Chem 5.4.0 for Intel X86 EM64T Linux

User input:
--------------------------------------------------------------
$molecule
0 1
C	-0.228098	-0.535395	0.017956
C	0.067302	0.276105	1.117356
C	0.540602	1.576505	0.794656
H	-0.058798	-0.070395	2.154056
C	0.616102	1.783905	-0.594544
S	0.094202	0.350205	-1.468844
C	0.912702	2.598705	1.832556
H	0.767102	2.198705	2.854656
H	0.297902	3.518705	1.744156
H	1.975102	2.908305	1.744156
C	-0.228098	-1.976095	0.017956
H	-1.163298	-1.976295	-0.522144
H	-0.637698	-2.679895	0.727356
H	0.245502	-2.494995	-0.802244
H	0.940802	2.675905	-1.143644
$end

$rem
JOBTYPE		SP
EXCHANGE	HF
CORRELATION	pRIMP2
BASIS		cc-pvtz
METHOD		rimp2
AUX_BASIS	rimp2-cc-pvtz
SOLVENT_METHOD	PCM
PURECART	11111
SYMMETRY	false
MEM_TOTAL	110000
SCF_CONVERGENCE = 6
THRESH=10
$end

$solvent
dielectric 4.90
$end
--------------------------------------------------------------

   10    -629.4124025505      5.91e-07  Convergence criterion met
 Total energy in the final basis set =     -629.4124025505
        RIMP2         total energy =      -630.5905370122 a.u.
 Total job time:  161.13s(wall), 158.85s(cpu)
        *  Thank you very much for using Q-Chem.  Have a nice day.  *
 Q-Chem 5.4, Q-Chem, Inc., Pleasanton, CA (2021)
 Q-Chem 5.4.0 for Intel X86 EM64T Linux

User input:
--------------------------------------------------------------
$molecule
0 1
C	-0.228098	-0.535395	0.017956
C	0.067302	0.276105	1.117356
C	0.540602	1.576505	0.794656
H	-0.058798	-0.070395	2.154056
C	0.616102	1.783905	-0.594544
S	0.094202	0.350205	-1.468844
C	0.912702	2.598705	1.832556
H	0.767102	2.198705	2.854656
H	0.297902	3.518705	1.744156
H	1.975102	2.908305	1.744156
C	-0.228098	-1.976095	0.017956
H	-1.163298	-1.976295	-0.522144
H	-0.637698	-2.679895	0.727356
H	0.245502	-2.494995	-0.802244
H	0.940802	2.675905	-1.143644
$end

$rem
JOBTYPE		SP
EXCHANGE	HF
CORRELATION	pRIMP2
BASIS		cc-pvtz
METHOD		rimp2
AUX_BASIS	rimp2-cc-pvtz
SOLVENT_METHOD	PCM
PURECART	11111
SYMMETRY	false
MEM_TOTAL	110000
SCF_CONVERGENCE = 6
THRESH=10
$end

$solvent
dielectric 4.90
$end
--------------------------------------------------------------

             Standard Nuclear Orientation (Angstroms)
    I     Atom           X                Y                Z
 ----------------------------------------------------------------
    1      C      -0.2280980000    -0.5353950000     0.0179560000
    2      C       0.0673020000     0.2761050000     1.1173560000
    3      C       0.5406020000     1.5765050000     0.7946560000
    4      H      -0.0587980000    -0.0703950000     2.1540560000
    5      C       0.6161020000     1.7839050000    -0.5945440000
    6      S       0.0942020000     0.3502050000    -1.4688440000
    7      C       0.9127020000     2.5987050000     1.8325560000
    8      H       0.7671020000     2.1987050000     2.8546560000
    9      H       0.2979020000     3.5187050000     1.7441560000
   10      H       1.9751020000     2.9083050000     1.7441560000
   11      C      -0.2280980000    -1.9760950000     0.0179560000
   12      H      -1.1632980000    -1.9762950000    -0.5221440000
   13      H      -0.6376980000    -2.6798950000     0.7273560000
   14      H       0.2455020000    -2.4949950000    -0.8022440000
   15      H       0.9408020000     2.6759050000    -1.1436440000
 ----------------------------------------------------------------

   10    -629.4124025505      5.91e-07  Convergence criterion met
 Total energy in the final basis set =     -629.4124025505
        RIMP2         total energy =      -630.5905370122 a.u.

                    Orbital Energies (a.u.)
 --------------------------------------------------------------

 Alpha MOs
 -- Occupied --
-91.9789 -11.2783 -11.2545 -11.2469 -11.2265 -11.2264 -11.2175  -8.9788
 -6.6598  -6.6593  -6.6586  -1.1609  -1.0553  -0.9958  -0.9443  -0.8820
 -0.7458  -0.7189  -0.6475  -0.5884  -0.5741  -0.5678  -0.5526  -0.5465
 -0.5097  -0.4896  -0.4617  -0.4539  -0.3385  -0.2911

          Ground-State Mulliken Net Atomic Charges

     Atom                 Charge (a.u.)
  ----------------------------------------
      1 C                     0.020145
      2 C                    -0.260642
      3 C                     0.036583
      4 H                     0.180208
      5 C                    -0.259330
      6 S                    -0.004870
      7 C                    -0.272909
      8 H                     0.101398
      9 H                     0.107061
     10 H                     0.106704
     11 C                    -0.376025
     12 H                     0.128532
     13 H                     0.160051
     14 H                     0.138538
     15 H                     0.194557
  ----------------------------------------
  Sum of atomic charges =     0.000000

                    Cartesian Multipole Moments
 -----------------------------------------------------------------
    Charge (ESU x 10^10)
                -0.0000
    Dipole Moment (Debye)
         X      -0.1230      Y      -0.3688      Z       1.1122
       Tot       1.1782
    Quadrupole Moments (Debye-Ang)
        XX     -53.0333     XY       4.2004     YY     -43.0408
        XZ      -0.1924     YZ       0.7638     ZZ     -48.5606

 Total job time:  157.69s(wall), 156.09s(cpu)
        *  Thank you very much for using Q-Chem.  Have a nice day.  *
