 Q-Chem 5.4, Q-Chem, Inc., Pleasanton, CA (2021)
 Q-Chem 5.4.0 for Intel X86 EM64T Linux

User input:
--------------------------------------------------------------
$molecule
0 1
C	-0.518233	-0.333972	0.010353
C	0.143367	0.221128	1.109753
C	1.203467	1.110628	0.787053
H	-0.139133	-0.015972	2.146453
C	1.372567	1.252428	-0.602147
S	0.203667	0.271728	-1.476447
C	2.036767	1.809828	1.824953
H	1.710667	1.536228	2.847053
H	1.964367	2.914028	1.736553
H	3.111567	1.546728	1.736553
C	-0.518233	-1.774672	0.010353
H	-0.705933	-1.774872	1.073953
H	0.288467	-2.478472	0.152653
H	-1.450933	-2.293572	-0.154147
H	2.099667	1.862628	-1.151247
$end

$rem
JOBTYPE		SP
EXCHANGE	HF
CORRELATION	pRIMP2
BASIS		cc-pvtz
METHOD		rimp2
AUX_BASIS	rimp2-cc-pvtz
SOLVENT_METHOD	PCM
PURECART	11111
SYMMETRY	false
MEM_TOTAL	110000
SCF_CONVERGENCE = 6
THRESH=10
$end

$solvent
dielectric 4.90
$end
--------------------------------------------------------------

             Standard Nuclear Orientation (Angstroms)
    I     Atom           X                Y                Z
 ----------------------------------------------------------------
    1      C      -0.5182330000    -0.3339720000     0.0103530000
    2      C       0.1433670000     0.2211280000     1.1097530000
    3      C       1.2034670000     1.1106280000     0.7870530000
    4      H      -0.1391330000    -0.0159720000     2.1464530000
    5      C       1.3725670000     1.2524280000    -0.6021470000
    6      S       0.2036670000     0.2717280000    -1.4764470000
    7      C       2.0367670000     1.8098280000     1.8249530000
    8      H       1.7106670000     1.5362280000     2.8470530000
    9      H       1.9643670000     2.9140280000     1.7365530000
   10      H       3.1115670000     1.5467280000     1.7365530000
   11      C      -0.5182330000    -1.7746720000     0.0103530000
   12      H      -0.7059330000    -1.7748720000     1.0739530000
   13      H       0.2884670000    -2.4784720000     0.1526530000
   14      H      -1.4509330000    -2.2935720000    -0.1541470000
   15      H       2.0996670000     1.8626280000    -1.1512470000
 ----------------------------------------------------------------

   10    -629.3724611789      8.04e-07  Convergence criterion met
 Total energy in the final basis set =     -629.3724611789
        RIMP2         total energy =      -630.5605854221 a.u.

                    Orbital Energies (a.u.)
 --------------------------------------------------------------

 Alpha MOs
 -- Occupied --
-91.9724 -11.2763 -11.2524 -11.2494 -11.2483 -11.2290 -11.2086  -8.9733
 -6.6541  -6.6533  -6.6530  -1.1696  -1.0546  -1.0006  -0.9356  -0.8839
 -0.7460  -0.7315  -0.6452  -0.5866  -0.5839  -0.5699  -0.5539  -0.5423
 -0.5189  -0.4729  -0.4613  -0.4247  -0.3352  -0.3065

          Ground-State Mulliken Net Atomic Charges

     Atom                 Charge (a.u.)
  ----------------------------------------
      1 C                    -0.065665
      2 C                    -0.168812
      3 C                     0.002010
      4 H                     0.179215
      5 C                    -0.202208
      6 S                     0.004374
      7 C                    -0.267988
      8 H                     0.101609
      9 H                     0.106804
     10 H                     0.105543
     11 C                    -0.350649
     12 H                     0.104450
     13 H                     0.145262
     14 H                     0.109934
     15 H                     0.196119
  ----------------------------------------
  Sum of atomic charges =     0.000000

                    Cartesian Multipole Moments
 -----------------------------------------------------------------
    Charge (ESU x 10^10)
                -0.0000
    Dipole Moment (Debye)
         X       1.8395      Y       0.3470      Z       2.2708
       Tot       2.9429
    Quadrupole Moments (Debye-Ang)
        XX     -48.9314     XY       4.6128     YY     -48.3715
        XZ      -0.3206     YZ      -1.0303     ZZ     -48.3917

 Total job time:  159.76s(wall), 158.41s(cpu)
        *  Thank you very much for using Q-Chem.  Have a nice day.  *
