 Q-Chem 5.4, Q-Chem, Inc., Pleasanton, CA (2021)
 Q-Chem 5.4.0 for Intel X86 EM64T Linux

User input:
--------------------------------------------------------------
$molecule
0 1
C	-0.516719	-0.333972	0.011118
C	0.144881	0.221128	1.110518
C	1.204981	1.110628	0.787818
H	-0.137619	-0.015972	2.147218
C	1.374081	1.252428	-0.601382
S	0.205181	0.271728	-1.475682
C	2.038281	1.809828	1.825718
H	1.712181	1.536228	2.847818
H	1.965881	2.914028	1.737318
H	3.113081	1.546728	1.737318
C	-0.516719	-1.774672	0.011118
H	-1.056819	-1.774872	0.946318
H	0.192681	-2.478472	0.420718
H	-1.336919	-2.293572	-0.462482
H	2.101181	1.862628	-1.150482
$end

$rem
JOBTYPE		SP
EXCHANGE	HF
CORRELATION	pRIMP2
BASIS		cc-pvtz
METHOD		rimp2
AUX_BASIS	rimp2-cc-pvtz
SOLVENT_METHOD	PCM
PURECART	11111
SYMMETRY	false
MEM_TOTAL	110000
SCF_CONVERGENCE = 6
THRESH=10
$end

$solvent
dielectric 4.90
$end
--------------------------------------------------------------

             Standard Nuclear Orientation (Angstroms)
    I     Atom           X                Y                Z
 ----------------------------------------------------------------
    1      C      -0.5167190000    -0.3339720000     0.0111180000
    2      C       0.1448810000     0.2211280000     1.1105180000
    3      C       1.2049810000     1.1106280000     0.7878180000
    4      H      -0.1376190000    -0.0159720000     2.1472180000
    5      C       1.3740810000     1.2524280000    -0.6013820000
    6      S       0.2051810000     0.2717280000    -1.4756820000
    7      C       2.0382810000     1.8098280000     1.8257180000
    8      H       1.7121810000     1.5362280000     2.8478180000
    9      H       1.9658810000     2.9140280000     1.7373180000
   10      H       3.1130810000     1.5467280000     1.7373180000
   11      C      -0.5167190000    -1.7746720000     0.0111180000
   12      H      -1.0568190000    -1.7748720000     0.9463180000
   13      H       0.1926810000    -2.4784720000     0.4207180000
   14      H      -1.3369190000    -2.2935720000    -0.4624820000
   15      H       2.1011810000     1.8626280000    -1.1504820000
 ----------------------------------------------------------------

   10    -629.3734829740      8.32e-07  Convergence criterion met
 Total energy in the final basis set =     -629.3734829740
        RIMP2         total energy =      -630.5615388411 a.u.

                    Orbital Energies (a.u.)
 --------------------------------------------------------------

 Alpha MOs
 -- Occupied --
-91.9717 -11.2757 -11.2526 -11.2494 -11.2482 -11.2289 -11.2094  -8.9726
 -6.6534  -6.6526  -6.6523  -1.1688  -1.0543  -0.9997  -0.9369  -0.8840
 -0.7462  -0.7300  -0.6456  -0.5847  -0.5836  -0.5680  -0.5547  -0.5425
 -0.5186  -0.4794  -0.4610  -0.4230  -0.3370  -0.3020

          Ground-State Mulliken Net Atomic Charges

     Atom                 Charge (a.u.)
  ----------------------------------------
      1 C                    -0.064059
      2 C                    -0.169854
      3 C                    -0.001582
      4 H                     0.181431
      5 C                    -0.202044
      6 S                     0.004476
      7 C                    -0.268173
      8 H                     0.101638
      9 H                     0.106853
     10 H                     0.105695
     11 C                    -0.366437
     12 H                     0.108463
     13 H                     0.148216
     14 H                     0.119595
     15 H                     0.195782
  ----------------------------------------
  Sum of atomic charges =     0.000000

                    Cartesian Multipole Moments
 -----------------------------------------------------------------
    Charge (ESU x 10^10)
                -0.0000
    Dipole Moment (Debye)
         X       1.6086      Y       0.3004      Z       2.2097
       Tot       2.7497
    Quadrupole Moments (Debye-Ang)
        XX     -48.8294     XY       5.1139     YY     -48.2876
        XZ      -0.0813     YZ      -0.9347     ZZ     -48.3315

 Total job time:  159.97s(wall), 158.12s(cpu)
        *  Thank you very much for using Q-Chem.  Have a nice day.  *
