 Q-Chem 5.4, Q-Chem, Inc., Pleasanton, CA (2021)
 Q-Chem 5.4.0 for Intel X86 EM64T Linux

User input:
--------------------------------------------------------------
$molecule
0 1
C	0.001911	-0.576312	0.010543
C	0.001911	0.287288	1.109943
C	0.002011	1.671188	0.787243
H	0.001911	-0.081512	2.146643
C	0.002011	1.891888	-0.601957
S	0.001911	0.366088	-1.476257
C	0.002011	2.758988	1.825143
H	0.002011	2.333288	2.847243
H	-0.890389	3.413288	1.736743
H	0.894411	3.413188	1.736743
C	0.001911	-2.017012	0.010543
H	-0.538189	-2.016712	0.945743
H	-0.707489	-2.720812	-0.399057
H	0.822111	-2.535912	0.484143
H	0.002011	2.841088	-1.151057
$end

$rem
JOBTYPE		SP
EXCHANGE	HF
CORRELATION	pRIMP2
BASIS		cc-pvtz
METHOD		rimp2
AUX_BASIS	rimp2-cc-pvtz
SOLVENT_METHOD	PCM
PURECART	11111
SYMMETRY	false
MEM_TOTAL	110000
SCF_CONVERGENCE = 6
THRESH=10
$end

$solvent
dielectric 4.90
$end
--------------------------------------------------------------

   10    -629.4241866683      5.34e-07  Convergence criterion met
 Total energy in the final basis set =     -629.4241866683
        RIMP2         total energy =      -630.6018300929 a.u.
 Total job time:  157.00s(wall), 155.41s(cpu)
        *  Thank you very much for using Q-Chem.  Have a nice day.  *
 Q-Chem 5.4, Q-Chem, Inc., Pleasanton, CA (2021)
 Q-Chem 5.4.0 for Intel X86 EM64T Linux

User input:
--------------------------------------------------------------
$molecule
0 1
C	0.001911	-0.576312	0.010543
C	0.001911	0.287288	1.109943
C	0.002011	1.671188	0.787243
H	0.001911	-0.081512	2.146643
C	0.002011	1.891888	-0.601957
S	0.001911	0.366088	-1.476257
C	0.002011	2.758988	1.825143
H	0.002011	2.333288	2.847243
H	-0.890389	3.413288	1.736743
H	0.894411	3.413188	1.736743
C	0.001911	-2.017012	0.010543
H	-0.538189	-2.016712	0.945743
H	-0.707489	-2.720812	-0.399057
H	0.822111	-2.535912	0.484143
H	0.002011	2.841088	-1.151057
$end

$rem
JOBTYPE		SP
EXCHANGE	HF
CORRELATION	pRIMP2
BASIS		cc-pvtz
METHOD		rimp2
AUX_BASIS	rimp2-cc-pvtz
SOLVENT_METHOD	PCM
PURECART	11111
SYMMETRY	false
MEM_TOTAL	110000
SCF_CONVERGENCE = 6
THRESH=10
$end

$solvent
dielectric 4.90
$end
--------------------------------------------------------------

             Standard Nuclear Orientation (Angstroms)
    I     Atom           X                Y                Z
 ----------------------------------------------------------------
    1      C       0.0019110000    -0.5763120000     0.0105430000
    2      C       0.0019110000     0.2872880000     1.1099430000
    3      C       0.0020110000     1.6711880000     0.7872430000
    4      H       0.0019110000    -0.0815120000     2.1466430000
    5      C       0.0020110000     1.8918880000    -0.6019570000
    6      S       0.0019110000     0.3660880000    -1.4762570000
    7      C       0.0020110000     2.7589880000     1.8251430000
    8      H       0.0020110000     2.3332880000     2.8472430000
    9      H      -0.8903890000     3.4132880000     1.7367430000
   10      H       0.8944110000     3.4131880000     1.7367430000
   11      C       0.0019110000    -2.0170120000     0.0105430000
   12      H      -0.5381890000    -2.0167120000     0.9457430000
   13      H      -0.7074890000    -2.7208120000    -0.3990570000
   14      H       0.8221110000    -2.5359120000     0.4841430000
   15      H       0.0020110000     2.8410880000    -1.1510570000
 ----------------------------------------------------------------

   10    -629.4241866683      5.34e-07  Convergence criterion met
 Total energy in the final basis set =     -629.4241866683
        RIMP2         total energy =      -630.6018300929 a.u.

                    Orbital Energies (a.u.)
 --------------------------------------------------------------

 Alpha MOs
 -- Occupied --
-91.9758 -11.2803 -11.2542 -11.2472 -11.2311 -11.2272 -11.2175  -8.9758
 -6.6567  -6.6562  -6.6557  -1.1606  -1.0545  -0.9994  -0.9397  -0.8842
 -0.7421  -0.7225  -0.6485  -0.5919  -0.5763  -0.5678  -0.5590  -0.5426
 -0.5098  -0.4865  -0.4672  -0.4426  -0.3373  -0.2992

          Ground-State Mulliken Net Atomic Charges

     Atom                 Charge (a.u.)
  ----------------------------------------
      1 C                     0.067293
      2 C                    -0.272707
      3 C                     0.032423
      4 H                     0.177124
      5 C                    -0.259854
      6 S                    -0.006430
      7 C                    -0.274355
      8 H                     0.101123
      9 H                     0.107141
     10 H                     0.107352
     11 C                    -0.383394
     12 H                     0.128026
     13 H                     0.155285
     14 H                     0.128489
     15 H                     0.192484
  ----------------------------------------
  Sum of atomic charges =     0.000000

                    Cartesian Multipole Moments
 -----------------------------------------------------------------
    Charge (ESU x 10^10)
                -0.0000
    Dipole Moment (Debye)
         X      -0.3273      Y      -0.2794      Z       2.0626
       Tot       2.1071
    Quadrupole Moments (Debye-Ang)
        XX     -53.8510     XY       0.8999     YY     -42.0984
        XZ       0.2695     YZ      -0.8444     ZZ     -48.8580

 Total job time:  161.09s(wall), 159.46s(cpu)
        *  Thank you very much for using Q-Chem.  Have a nice day.  *
