 Q-Chem 5.4, Q-Chem, Inc., Pleasanton, CA (2021)
 Q-Chem 5.4.0 for Intel X86 EM64T Linux

User input:
--------------------------------------------------------------
$molecule
0 1
C	-0.056946	-0.573729	0.019394
C	0.018354	0.286571	1.118794
C	0.138954	1.665271	0.796094
H	-0.013746	-0.080829	2.155494
C	0.158254	1.885071	-0.593106
S	0.025254	0.365071	-1.467406
C	0.233854	2.748871	1.833994
H	0.196754	2.324771	2.856094
H	-0.598146	3.478371	1.745594
H	1.179854	3.322871	1.745594
C	-0.056946	-2.014429	0.019394
H	-0.426246	-2.014129	-0.995506
H	0.712854	-2.718229	-0.260706
H	-0.946946	-2.533329	0.343294
H	0.240954	2.830671	-1.142206
$end

$rem
JOBTYPE		SP
EXCHANGE	HF
CORRELATION	pRIMP2
BASIS		cc-pvtz
METHOD		rimp2
AUX_BASIS	rimp2-cc-pvtz
SOLVENT_METHOD	PCM
PURECART	11111
SYMMETRY	false
MEM_TOTAL	110000
SCF_CONVERGENCE = 6
THRESH=10
$end

$solvent
dielectric 4.90
$end
--------------------------------------------------------------

             Standard Nuclear Orientation (Angstroms)
    I     Atom           X                Y                Z
 ----------------------------------------------------------------
    1      C      -0.0569460000    -0.5737290000     0.0193940000
    2      C       0.0183540000     0.2865710000     1.1187940000
    3      C       0.1389540000     1.6652710000     0.7960940000
    4      H      -0.0137460000    -0.0808290000     2.1554940000
    5      C       0.1582540000     1.8850710000    -0.5931060000
    6      S       0.0252540000     0.3650710000    -1.4674060000
    7      C       0.2338540000     2.7488710000     1.8339940000
    8      H       0.1967540000     2.3247710000     2.8560940000
    9      H      -0.5981460000     3.4783710000     1.7455940000
   10      H       1.1798540000     3.3228710000     1.7455940000
   11      C      -0.0569460000    -2.0144290000     0.0193940000
   12      H      -0.4262460000    -2.0141290000    -0.9955060000
   13      H       0.7128540000    -2.7182290000    -0.2607060000
   14      H      -0.9469460000    -2.5333290000     0.3432940000
   15      H       0.2409540000     2.8306710000    -1.1422060000
 ----------------------------------------------------------------

   10    -629.4205279636      5.49e-07  Convergence criterion met
 Total energy in the final basis set =     -629.4205279636
        RIMP2         total energy =      -630.5982786461 a.u.

                    Orbital Energies (a.u.)
 --------------------------------------------------------------

 Alpha MOs
 -- Occupied --
-91.9802 -11.2755 -11.2574 -11.2471 -11.2291 -11.2268 -11.2163  -8.9800
 -6.6609  -6.6604  -6.6598  -1.1608  -1.0551  -0.9955  -0.9461  -0.8818
 -0.7476  -0.7187  -0.6479  -0.5912  -0.5755  -0.5671  -0.5526  -0.5474
 -0.5092  -0.4856  -0.4650  -0.4458  -0.3385  -0.3022

          Ground-State Mulliken Net Atomic Charges

     Atom                 Charge (a.u.)
  ----------------------------------------
      1 C                     0.050551
      2 C                    -0.261094
      3 C                     0.036585
      4 H                     0.180308
      5 C                    -0.257855
      6 S                    -0.002126
      7 C                    -0.273370
      8 H                     0.101794
      9 H                     0.106856
     10 H                     0.106959
     11 C                    -0.367786
     12 H                     0.112833
     13 H                     0.138995
     14 H                     0.132463
     15 H                     0.194887
  ----------------------------------------
  Sum of atomic charges =     0.000000

                    Cartesian Multipole Moments
 -----------------------------------------------------------------
    Charge (ESU x 10^10)
                -0.0000
    Dipole Moment (Debye)
         X      -0.1046      Y      -0.0097      Z       0.8885
       Tot       0.8947
    Quadrupole Moments (Debye-Ang)
        XX     -53.6879     XY       1.1913     YY     -42.2140
        XZ      -0.1750     YZ       1.4706     ZZ     -48.8025

 Total job time:  158.31s(wall), 156.98s(cpu)
        *  Thank you very much for using Q-Chem.  Have a nice day.  *
