 Q-Chem 5.4, Q-Chem, Inc., Pleasanton, CA (2021)
 Q-Chem 5.4.0 for Intel X86 EM64T Linux

User input:
--------------------------------------------------------------
$molecule
0 1
C	-0.059720	-0.573727	0.019884
C	0.015580	0.286573	1.119284
C	0.136180	1.665273	0.796584
H	-0.016520	-0.080827	2.155984
C	0.155480	1.885073	-0.592616
S	0.022480	0.365073	-1.466916
C	0.231080	2.748873	1.834484
H	0.193980	2.324773	2.856584
H	-0.600920	3.478373	1.746084
H	1.177080	3.322873	1.746084
C	-0.059720	-2.014427	0.019884
H	-0.059620	-2.014627	-1.060116
H	-0.878920	-2.718227	0.019784
H	0.887380	-2.533327	0.019884
H	0.238180	2.830673	-1.141716
$end

$rem
JOBTYPE		SP
EXCHANGE	HF
CORRELATION	pRIMP2
BASIS		cc-pvtz
METHOD		rimp2
AUX_BASIS	rimp2-cc-pvtz
SOLVENT_METHOD	PCM
PURECART	11111
SYMMETRY	false
MEM_TOTAL	110000
SCF_CONVERGENCE = 6
THRESH=10
$end

$solvent
dielectric 4.90
$end
--------------------------------------------------------------

             Standard Nuclear Orientation (Angstroms)
    I     Atom           X                Y                Z
 ----------------------------------------------------------------
    1      C      -0.0597200000    -0.5737270000     0.0198840000
    2      C       0.0155800000     0.2865730000     1.1192840000
    3      C       0.1361800000     1.6652730000     0.7965840000
    4      H      -0.0165200000    -0.0808270000     2.1559840000
    5      C       0.1554800000     1.8850730000    -0.5926160000
    6      S       0.0224800000     0.3650730000    -1.4669160000
    7      C       0.2310800000     2.7488730000     1.8344840000
    8      H       0.1939800000     2.3247730000     2.8565840000
    9      H      -0.6009200000     3.4783730000     1.7460840000
   10      H       1.1770800000     3.3228730000     1.7460840000
   11      C      -0.0597200000    -2.0144270000     0.0198840000
   12      H      -0.0596200000    -2.0146270000    -1.0601160000
   13      H      -0.8789200000    -2.7182270000     0.0197840000
   14      H       0.8873800000    -2.5333270000     0.0198840000
   15      H       0.2381800000     2.8306730000    -1.1417160000
 ----------------------------------------------------------------

   10    -629.4202721938      5.43e-07  Convergence criterion met
 Total energy in the final basis set =     -629.4202721938
        RIMP2         total energy =      -630.5981907863 a.u.

                    Orbital Energies (a.u.)
 --------------------------------------------------------------

 Alpha MOs
 -- Occupied --
-91.9807 -11.2748 -11.2579 -11.2471 -11.2291 -11.2268 -11.2160  -8.9806
 -6.6615  -6.6609  -6.6603  -1.1610  -1.0551  -0.9953  -0.9464  -0.8816
 -0.7480  -0.7186  -0.6481  -0.5916  -0.5753  -0.5657  -0.5537  -0.5474
 -0.5088  -0.4860  -0.4650  -0.4438  -0.3383  -0.3041

          Ground-State Mulliken Net Atomic Charges

     Atom                 Charge (a.u.)
  ----------------------------------------
      1 C                     0.058781
      2 C                    -0.264280
      3 C                     0.040784
      4 H                     0.179961
      5 C                    -0.260562
      6 S                    -0.002798
      7 C                    -0.273236
      8 H                     0.101905
      9 H                     0.106820
     10 H                     0.106866
     11 C                    -0.371352
     12 H                     0.112340
     13 H                     0.144661
     14 H                     0.124664
     15 H                     0.195445
  ----------------------------------------
  Sum of atomic charges =     0.000000

                    Cartesian Multipole Moments
 -----------------------------------------------------------------
    Charge (ESU x 10^10)
                -0.0000
    Dipole Moment (Debye)
         X       0.1532      Y       0.0370      Z       0.8469
       Tot       0.8615
    Quadrupole Moments (Debye-Ang)
        XX     -53.6262     XY       0.8756     YY     -42.2591
        XZ       0.0624     YZ       1.4920     ZZ     -48.8402

 Total job time:  158.30s(wall), 157.25s(cpu)
        *  Thank you very much for using Q-Chem.  Have a nice day.  *
