 Q-Chem 5.4, Q-Chem, Inc., Pleasanton, CA (2021)
 Q-Chem 5.4.0 for Intel X86 EM64T Linux

User input:
--------------------------------------------------------------
$molecule
0 1
C	-0.437161	-0.417597	0.019787
C	0.117939	0.243903	1.119187
C	1.007539	1.304103	0.796487
H	-0.119061	-0.038597	2.155887
C	1.149439	1.473103	-0.592713
S	0.168639	0.304303	-1.467013
C	1.706739	2.137303	1.834387
H	1.433139	1.811303	2.856487
H	1.443739	3.212103	1.745987
H	2.810939	2.064903	1.745987
C	-0.437161	-1.858297	0.019787
H	-0.067661	-1.857997	-0.995013
H	0.332639	-2.562097	0.299987
H	-1.327161	-2.377197	-0.304113
H	1.759539	2.200203	-1.141813
$end

$rem
JOBTYPE		SP
EXCHANGE	HF
CORRELATION	pRIMP2
BASIS		cc-pvtz
METHOD		rimp2
AUX_BASIS	rimp2-cc-pvtz
SOLVENT_METHOD	PCM
PURECART	11111
SYMMETRY	false
MEM_TOTAL	110000
SCF_CONVERGENCE = 6
THRESH=10
$end

$solvent
dielectric 4.90
$end
--------------------------------------------------------------

             Standard Nuclear Orientation (Angstroms)
    I     Atom           X                Y                Z
 ----------------------------------------------------------------
    1      C      -0.4371610000    -0.4175970000     0.0197870000
    2      C       0.1179390000     0.2439030000     1.1191870000
    3      C       1.0075390000     1.3041030000     0.7964870000
    4      H      -0.1190610000    -0.0385970000     2.1558870000
    5      C       1.1494390000     1.4731030000    -0.5927130000
    6      S       0.1686390000     0.3043030000    -1.4670130000
    7      C       1.7067390000     2.1373030000     1.8343870000
    8      H       1.4331390000     1.8113030000     2.8564870000
    9      H       1.4437390000     3.2121030000     1.7459870000
   10      H       2.8109390000     2.0649030000     1.7459870000
   11      C      -0.4371610000    -1.8582970000     0.0197870000
   12      H      -0.0676610000    -1.8579970000    -0.9950130000
   13      H       0.3326390000    -2.5620970000     0.2999870000
   14      H      -1.3271610000    -2.3771970000    -0.3041130000
   15      H       1.7595390000     2.2002030000    -1.1418130000
 ----------------------------------------------------------------

   10    -629.3835717368      5.06e-07  Convergence criterion met
 Total energy in the final basis set =     -629.3835717368
        RIMP2         total energy =      -630.5683769061 a.u.

                    Orbital Energies (a.u.)
 --------------------------------------------------------------

 Alpha MOs
 -- Occupied --
-91.9751 -11.2680 -11.2617 -11.2472 -11.2397 -11.2276 -11.2095  -8.9760
 -6.6568  -6.6561  -6.6556  -1.1666  -1.0558  -0.9940  -0.9451  -0.8795
 -0.7511  -0.7224  -0.6461  -0.5868  -0.5793  -0.5672  -0.5515  -0.5478
 -0.5150  -0.4735  -0.4635  -0.4399  -0.3360  -0.3010

          Ground-State Mulliken Net Atomic Charges

     Atom                 Charge (a.u.)
  ----------------------------------------
      1 C                    -0.017233
      2 C                    -0.224482
      3 C                     0.031094
      4 H                     0.180047
      5 C                    -0.230164
      6 S                    -0.003762
      7 C                    -0.270247
      8 H                     0.101809
      9 H                     0.107256
     10 H                     0.105422
     11 C                    -0.369299
     12 H                     0.126551
     13 H                     0.152126
     14 H                     0.114855
     15 H                     0.196029
  ----------------------------------------
  Sum of atomic charges =     0.000000

                    Cartesian Multipole Moments
 -----------------------------------------------------------------
    Charge (ESU x 10^10)
                -0.0000
    Dipole Moment (Debye)
         X       1.5732      Y       0.2086      Z       1.0214
       Tot       1.8872
    Quadrupole Moments (Debye-Ang)
        XX     -50.6967     XY       3.7844     YY     -46.6281
        XZ       0.3205     YZ       1.2394     ZZ     -48.3892

 Total job time:  159.31s(wall), 157.66s(cpu)
        *  Thank you very much for using Q-Chem.  Have a nice day.  *
