 Q-Chem 5.4, Q-Chem, Inc., Pleasanton, CA (2021)
 Q-Chem 5.4.0 for Intel X86 EM64T Linux

User input:
--------------------------------------------------------------
$molecule
0 1
C	-0.281843	-0.512744	0.015607
C	0.083157	0.269956	1.115007
C	0.668057	1.524156	0.792307
H	-0.072743	-0.064344	2.151707
C	0.761357	1.724156	-0.596893
S	0.116457	0.341356	-1.471193
C	1.127757	2.509956	1.830207
H	0.947857	2.124256	2.852307
H	0.595457	3.480156	1.741807
H	2.213057	2.725856	1.741807
C	-0.281843	-1.953444	0.015607
H	-1.361843	-1.953644	0.015507
H	-0.281943	-2.657244	0.834807
H	-0.281843	-2.472344	-0.931493
H	1.162457	2.584456	-1.145993
$end

$rem
JOBTYPE		SP
EXCHANGE	HF
CORRELATION	pRIMP2
BASIS		cc-pvtz
METHOD		rimp2
AUX_BASIS	rimp2-cc-pvtz
SOLVENT_METHOD	PCM
PURECART	11111
SYMMETRY	false
MEM_TOTAL	110000
SCF_CONVERGENCE = 6
THRESH=10
$end

$solvent
dielectric 4.90
$end
--------------------------------------------------------------

             Standard Nuclear Orientation (Angstroms)
    I     Atom           X                Y                Z
 ----------------------------------------------------------------
    1      C      -0.2818430000    -0.5127440000     0.0156070000
    2      C       0.0831570000     0.2699560000     1.1150070000
    3      C       0.6680570000     1.5241560000     0.7923070000
    4      H      -0.0727430000    -0.0643440000     2.1517070000
    5      C       0.7613570000     1.7241560000    -0.5968930000
    6      S       0.1164570000     0.3413560000    -1.4711930000
    7      C       1.1277570000     2.5099560000     1.8302070000
    8      H       0.9478570000     2.1242560000     2.8523070000
    9      H       0.5954570000     3.4801560000     1.7418070000
   10      H       2.2130570000     2.7258560000     1.7418070000
   11      C      -0.2818430000    -1.9534440000     0.0156070000
   12      H      -1.3618430000    -1.9536440000     0.0155070000
   13      H      -0.2819430000    -2.6572440000     0.8348070000
   14      H      -0.2818430000    -2.4723440000    -0.9314930000
   15      H       1.1624570000     2.5844560000    -1.1459930000
 ----------------------------------------------------------------

   10    -629.4061757579      6.05e-07  Convergence criterion met
 Total energy in the final basis set =     -629.4061757579
        RIMP2         total energy =      -630.5858536448 a.u.

                    Orbital Energies (a.u.)
 --------------------------------------------------------------

 Alpha MOs
 -- Occupied --
-91.9775 -11.2783 -11.2532 -11.2470 -11.2267 -11.2265 -11.2173  -8.9775
 -6.6584  -6.6578  -6.6572  -1.1610  -1.0550  -0.9965  -0.9424  -0.8825
 -0.7444  -0.7198  -0.6474  -0.5852  -0.5733  -0.5681  -0.5545  -0.5453
 -0.5105  -0.4940  -0.4579  -0.4542  -0.3377  -0.2869

          Ground-State Mulliken Net Atomic Charges

     Atom                 Charge (a.u.)
  ----------------------------------------
      1 C                     0.032081
      2 C                    -0.288102
      3 C                     0.050752
      4 H                     0.176949
      5 C                    -0.271691
      6 S                     0.004719
      7 C                    -0.271196
      8 H                     0.101441
      9 H                     0.107063
     10 H                     0.106606
     11 C                    -0.378186
     12 H                     0.134801
     13 H                     0.162425
     14 H                     0.139262
     15 H                     0.193075
  ----------------------------------------
  Sum of atomic charges =     0.000000

                    Cartesian Multipole Moments
 -----------------------------------------------------------------
    Charge (ESU x 10^10)
                -0.0000
    Dipole Moment (Debye)
         X      -0.1626      Y      -0.5024      Z       1.4462
       Tot       1.5396
    Quadrupole Moments (Debye-Ang)
        XX     -52.5970     XY       4.8977     YY     -43.6936
        XZ       0.0566     YZ       0.1110     ZZ     -48.3976

 Total job time:  157.73s(wall), 155.32s(cpu)
        *  Thank you very much for using Q-Chem.  Have a nice day.  *
