 Q-Chem 5.4, Q-Chem, Inc., Pleasanton, CA (2021)
 Q-Chem 5.4.0 for Intel X86 EM64T Linux

User input:
--------------------------------------------------------------
$molecule
0 1
C	-0.002942	-0.576309	0.018946
C	-0.002942	0.287291	1.118346
C	-0.002842	1.671191	0.795646
H	-0.002942	-0.081509	2.155046
C	-0.002842	1.891891	-0.593554
S	-0.002942	0.366091	-1.467854
C	-0.002842	2.758991	1.833546
H	-0.002842	2.333291	2.855646
H	-0.895242	3.413291	1.745146
H	0.889558	3.413191	1.745146
C	-0.002942	-2.017009	0.018946
H	0.537158	-2.017209	-0.916254
H	-0.712342	-2.720809	-0.390654
H	0.817258	-2.535909	0.492546
H	-0.002842	2.841091	-1.142654
$end

$rem
JOBTYPE		SP
EXCHANGE	HF
CORRELATION	pRIMP2
BASIS		cc-pvtz
METHOD		rimp2
AUX_BASIS	rimp2-cc-pvtz
SOLVENT_METHOD	PCM
PURECART	11111
SYMMETRY	false
MEM_TOTAL	110000
SCF_CONVERGENCE = 6
THRESH=10
$end

$solvent
dielectric 4.90
$end
--------------------------------------------------------------

   10    -629.4219166840      5.74e-07  Convergence criterion met
 Total energy in the final basis set =     -629.4219166840
        RIMP2         total energy =      -630.5990386055 a.u.
 Total job time:  158.09s(wall), 156.09s(cpu)
        *  Thank you very much for using Q-Chem.  Have a nice day.  *
 Q-Chem 5.4, Q-Chem, Inc., Pleasanton, CA (2021)
 Q-Chem 5.4.0 for Intel X86 EM64T Linux

User input:
--------------------------------------------------------------
$molecule
0 1
C	-0.002942	-0.576309	0.018946
C	-0.002942	0.287291	1.118346
C	-0.002842	1.671191	0.795646
H	-0.002942	-0.081509	2.155046
C	-0.002842	1.891891	-0.593554
S	-0.002942	0.366091	-1.467854
C	-0.002842	2.758991	1.833546
H	-0.002842	2.333291	2.855646
H	-0.895242	3.413291	1.745146
H	0.889558	3.413191	1.745146
C	-0.002942	-2.017009	0.018946
H	0.537158	-2.017209	-0.916254
H	-0.712342	-2.720809	-0.390654
H	0.817258	-2.535909	0.492546
H	-0.002842	2.841091	-1.142654
$end

$rem
JOBTYPE		SP
EXCHANGE	HF
CORRELATION	pRIMP2
BASIS		cc-pvtz
METHOD		rimp2
AUX_BASIS	rimp2-cc-pvtz
SOLVENT_METHOD	PCM
PURECART	11111
SYMMETRY	false
MEM_TOTAL	110000
SCF_CONVERGENCE = 6
THRESH=10
$end

$solvent
dielectric 4.90
$end
--------------------------------------------------------------

             Standard Nuclear Orientation (Angstroms)
    I     Atom           X                Y                Z
 ----------------------------------------------------------------
    1      C      -0.0029420000    -0.5763090000     0.0189460000
    2      C      -0.0029420000     0.2872910000     1.1183460000
    3      C      -0.0028420000     1.6711910000     0.7956460000
    4      H      -0.0029420000    -0.0815090000     2.1550460000
    5      C      -0.0028420000     1.8918910000    -0.5935540000
    6      S      -0.0029420000     0.3660910000    -1.4678540000
    7      C      -0.0028420000     2.7589910000     1.8335460000
    8      H      -0.0028420000     2.3332910000     2.8556460000
    9      H      -0.8952420000     3.4132910000     1.7451460000
   10      H       0.8895580000     3.4131910000     1.7451460000
   11      C      -0.0029420000    -2.0170090000     0.0189460000
   12      H       0.5371580000    -2.0172090000    -0.9162540000
   13      H      -0.7123420000    -2.7208090000    -0.3906540000
   14      H       0.8172580000    -2.5359090000     0.4925460000
   15      H      -0.0028420000     2.8410910000    -1.1426540000
 ----------------------------------------------------------------

   10    -629.4219166840      5.74e-07  Convergence criterion met
 Total energy in the final basis set =     -629.4219166840
        RIMP2         total energy =      -630.5990386055 a.u.

                    Orbital Energies (a.u.)
 --------------------------------------------------------------

 Alpha MOs
 -- Occupied --
-91.9793 -11.2775 -11.2560 -11.2470 -11.2284 -11.2268 -11.2171  -8.9793
 -6.6602  -6.6597  -6.6591  -1.1608  -1.0553  -0.9957  -0.9457  -0.8819
 -0.7472  -0.7186  -0.6478  -0.5914  -0.5756  -0.5670  -0.5521  -0.5475
 -0.5087  -0.4874  -0.4649  -0.4479  -0.3388  -0.2998

          Ground-State Mulliken Net Atomic Charges

     Atom                 Charge (a.u.)
  ----------------------------------------
      1 C                     0.053828
      2 C                    -0.267801
      3 C                     0.037826
      4 H                     0.180743
      5 C                    -0.259460
      6 S                    -0.003131
      7 C                    -0.273359
      8 H                     0.101684
      9 H                     0.107097
     10 H                     0.106967
     11 C                    -0.371039
     12 H                     0.116227
     13 H                     0.142041
     14 H                     0.133867
     15 H                     0.194510
  ----------------------------------------
  Sum of atomic charges =     0.000000

                    Cartesian Multipole Moments
 -----------------------------------------------------------------
    Charge (ESU x 10^10)
                -0.0000
    Dipole Moment (Debye)
         X       0.3451      Y      -0.1256      Z       0.9169
       Tot       0.9877
    Quadrupole Moments (Debye-Ang)
        XX     -53.8789     XY      -0.6669     YY     -42.0677
        XZ       0.2893     YZ       1.4587     ZZ     -48.7728

 Total job time:  156.80s(wall), 155.14s(cpu)
        *  Thank you very much for using Q-Chem.  Have a nice day.  *
