 Q-Chem 5.4, Q-Chem, Inc., Pleasanton, CA (2021)
 Q-Chem 5.4.0 for Intel X86 EM64T Linux

User input:
--------------------------------------------------------------
$molecule
0 1
C	-0.283348	-0.512746	0.011474
C	0.081652	0.269954	1.110874
C	0.666552	1.524154	0.788174
H	-0.074248	-0.064346	2.147574
C	0.759852	1.724154	-0.601026
S	0.114952	0.341354	-1.475326
C	1.126252	2.509954	1.826074
H	0.946352	2.124254	2.848174
H	0.593952	3.480154	1.737674
H	2.211552	2.725854	1.737674
C	-0.283348	-1.953446	0.011474
H	-1.110748	-1.953146	0.705574
H	-0.809848	-2.657246	-0.616126
H	0.325452	-2.472346	0.736974
H	1.160952	2.584454	-1.150126
$end

$rem
JOBTYPE		SP
EXCHANGE	HF
CORRELATION	pRIMP2
BASIS		cc-pvtz
METHOD		rimp2
AUX_BASIS	rimp2-cc-pvtz
SOLVENT_METHOD	PCM
PURECART	11111
SYMMETRY	false
MEM_TOTAL	110000
SCF_CONVERGENCE = 6
THRESH=10
$end

$solvent
dielectric 4.90
$end
--------------------------------------------------------------

             Standard Nuclear Orientation (Angstroms)
    I     Atom           X                Y                Z
 ----------------------------------------------------------------
    1      C      -0.2833480000    -0.5127460000     0.0114740000
    2      C       0.0816520000     0.2699540000     1.1108740000
    3      C       0.6665520000     1.5241540000     0.7881740000
    4      H      -0.0742480000    -0.0643460000     2.1475740000
    5      C       0.7598520000     1.7241540000    -0.6010260000
    6      S       0.1149520000     0.3413540000    -1.4753260000
    7      C       1.1262520000     2.5099540000     1.8260740000
    8      H       0.9463520000     2.1242540000     2.8481740000
    9      H       0.5939520000     3.4801540000     1.7376740000
   10      H       2.2115520000     2.7258540000     1.7376740000
   11      C      -0.2833480000    -1.9534460000     0.0114740000
   12      H      -1.1107480000    -1.9531460000     0.7055740000
   13      H      -0.8098480000    -2.6572460000    -0.6161260000
   14      H       0.3254520000    -2.4723460000     0.7369740000
   15      H       1.1609520000     2.5844540000    -1.1501260000
 ----------------------------------------------------------------

   10    -629.4103461646      5.51e-07  Convergence criterion met
 Total energy in the final basis set =     -629.4103461646
        RIMP2         total energy =      -630.5909405183 a.u.

                    Orbital Energies (a.u.)
 --------------------------------------------------------------

 Alpha MOs
 -- Occupied --
-91.9746 -11.2765 -11.2559 -11.2477 -11.2322 -11.2272 -11.2164  -8.9748
 -6.6558  -6.6551  -6.6546  -1.1615  -1.0544  -0.9984  -0.9396  -0.8838
 -0.7429  -0.7221  -0.6463  -0.5897  -0.5766  -0.5665  -0.5581  -0.5432
 -0.5113  -0.4908  -0.4622  -0.4422  -0.3373  -0.2935

          Ground-State Mulliken Net Atomic Charges

     Atom                 Charge (a.u.)
  ----------------------------------------
      1 C                     0.042201
      2 C                    -0.290231
      3 C                     0.045707
      4 H                     0.177043
      5 C                    -0.256575
      6 S                    -0.000607
      7 C                    -0.272237
      8 H                     0.101232
      9 H                     0.107051
     10 H                     0.107032
     11 C                    -0.381300
     12 H                     0.131325
     13 H                     0.156534
     14 H                     0.141294
     15 H                     0.191529
  ----------------------------------------
  Sum of atomic charges =     0.000000

                    Cartesian Multipole Moments
 -----------------------------------------------------------------
    Charge (ESU x 10^10)
                -0.0000
    Dipole Moment (Debye)
         X       0.0835      Y      -0.3203      Z       1.9603
       Tot       1.9880
    Quadrupole Moments (Debye-Ang)
        XX     -52.3276     XY       4.6589     YY     -43.8279
        XZ       0.3320     YZ      -0.5088     ZZ     -48.6327

 Total job time:  156.34s(wall), 155.43s(cpu)
        *  Thank you very much for using Q-Chem.  Have a nice day.  *
