 Q-Chem 5.4, Q-Chem, Inc., Pleasanton, CA (2021)
 Q-Chem 5.4.0 for Intel X86 EM64T Linux

User input:
--------------------------------------------------------------
$molecule
0 1
C	-0.115133	-0.566007	0.019119
C	0.034867	0.284493	1.118519
C	0.275167	1.647393	0.795819
H	-0.029233	-0.078707	2.155219
C	0.313567	1.864693	-0.593381
S	0.048567	0.362093	-1.467681
C	0.464067	2.718593	1.833719
H	0.390167	2.299393	2.855819
H	-0.301133	3.517893	1.745319
H	1.456567	3.207893	1.745319
C	-0.115133	-2.006707	0.019119
H	-0.809233	-2.006907	-0.808281
H	-0.742733	-2.710507	0.545619
H	0.610367	-2.525607	-0.589681
H	0.478367	2.799393	-1.142481
$end

$rem
JOBTYPE		SP
EXCHANGE	HF
CORRELATION	pRIMP2
BASIS		cc-pvtz
METHOD		rimp2
AUX_BASIS	rimp2-cc-pvtz
SOLVENT_METHOD	PCM
PURECART	11111
SYMMETRY	false
MEM_TOTAL	110000
SCF_CONVERGENCE = 6
THRESH=10
$end

$solvent
dielectric 4.90
$end
--------------------------------------------------------------

   10    -629.4197982377      5.88e-07  Convergence criterion met
 Total energy in the final basis set =     -629.4197982377
        RIMP2         total energy =      -630.5968155066 a.u.
 Total job time:  157.60s(wall), 155.70s(cpu)
        *  Thank you very much for using Q-Chem.  Have a nice day.  *
 Q-Chem 5.4, Q-Chem, Inc., Pleasanton, CA (2021)
 Q-Chem 5.4.0 for Intel X86 EM64T Linux

User input:
--------------------------------------------------------------
$molecule
0 1
C	-0.115133	-0.566007	0.019119
C	0.034867	0.284493	1.118519
C	0.275167	1.647393	0.795819
H	-0.029233	-0.078707	2.155219
C	0.313567	1.864693	-0.593381
S	0.048567	0.362093	-1.467681
C	0.464067	2.718593	1.833719
H	0.390167	2.299393	2.855819
H	-0.301133	3.517893	1.745319
H	1.456567	3.207893	1.745319
C	-0.115133	-2.006707	0.019119
H	-0.809233	-2.006907	-0.808281
H	-0.742733	-2.710507	0.545619
H	0.610367	-2.525607	-0.589681
H	0.478367	2.799393	-1.142481
$end

$rem
JOBTYPE		SP
EXCHANGE	HF
CORRELATION	pRIMP2
BASIS		cc-pvtz
METHOD		rimp2
AUX_BASIS	rimp2-cc-pvtz
SOLVENT_METHOD	PCM
PURECART	11111
SYMMETRY	false
MEM_TOTAL	110000
SCF_CONVERGENCE = 6
THRESH=10
$end

$solvent
dielectric 4.90
$end
--------------------------------------------------------------

             Standard Nuclear Orientation (Angstroms)
    I     Atom           X                Y                Z
 ----------------------------------------------------------------
    1      C      -0.1151330000    -0.5660070000     0.0191190000
    2      C       0.0348670000     0.2844930000     1.1185190000
    3      C       0.2751670000     1.6473930000     0.7958190000
    4      H      -0.0292330000    -0.0787070000     2.1552190000
    5      C       0.3135670000     1.8646930000    -0.5933810000
    6      S       0.0485670000     0.3620930000    -1.4676810000
    7      C       0.4640670000     2.7185930000     1.8337190000
    8      H       0.3901670000     2.2993930000     2.8558190000
    9      H      -0.3011330000     3.5178930000     1.7453190000
   10      H       1.4565670000     3.2078930000     1.7453190000
   11      C      -0.1151330000    -2.0067070000     0.0191190000
   12      H      -0.8092330000    -2.0069070000    -0.8082810000
   13      H      -0.7427330000    -2.7105070000     0.5456190000
   14      H       0.6103670000    -2.5256070000    -0.5896810000
   15      H       0.4783670000     2.7993930000    -1.1424810000
 ----------------------------------------------------------------

   10    -629.4197982377      5.88e-07  Convergence criterion met
 Total energy in the final basis set =     -629.4197982377
        RIMP2         total energy =      -630.5968155066 a.u.

                    Orbital Energies (a.u.)
 --------------------------------------------------------------

 Alpha MOs
 -- Occupied --
-91.9797 -11.2781 -11.2553 -11.2469 -11.2269 -11.2266 -11.2176  -8.9796
 -6.6606  -6.6601  -6.6594  -1.1607  -1.0554  -0.9956  -0.9455  -0.8818
 -0.7466  -0.7184  -0.6482  -0.5905  -0.5749  -0.5660  -0.5533  -0.5471
 -0.5088  -0.4877  -0.4648  -0.4504  -0.3389  -0.2968

          Ground-State Mulliken Net Atomic Charges

     Atom                 Charge (a.u.)
  ----------------------------------------
      1 C                     0.039180
      2 C                    -0.264952
      3 C                     0.035374
      4 H                     0.180331
      5 C                    -0.256934
      6 S                    -0.004524
      7 C                    -0.273681
      8 H                     0.101548
      9 H                     0.106983
     10 H                     0.107047
     11 C                    -0.372129
     12 H                     0.119388
     13 H                     0.158485
     14 H                     0.129250
     15 H                     0.194633
  ----------------------------------------
  Sum of atomic charges =     0.000000

                    Cartesian Multipole Moments
 -----------------------------------------------------------------
    Charge (ESU x 10^10)
                -0.0000
    Dipole Moment (Debye)
         X      -0.1762      Y      -0.2187      Z       0.9514
       Tot       0.9920
    Quadrupole Moments (Debye-Ang)
        XX     -53.6476     XY       2.5723     YY     -42.2471
        XZ      -0.2451     YZ       1.1580     ZZ     -48.7412

 Total job time:  155.42s(wall), 154.22s(cpu)
        *  Thank you very much for using Q-Chem.  Have a nice day.  *
