 Q-Chem 5.4, Q-Chem, Inc., Pleasanton, CA (2021)
 Q-Chem 5.4.0 for Intel X86 EM64T Linux

User input:
--------------------------------------------------------------
$molecule
0 1
C	-0.439599	-0.417597	0.011685
C	0.115501	0.243903	1.111085
C	1.005101	1.304103	0.788385
H	-0.121499	-0.038597	2.147785
C	1.147001	1.473103	-0.600815
S	0.166201	0.304303	-1.475115
C	1.704301	2.137303	1.826285
H	1.430701	1.811303	2.848385
H	1.441301	3.212103	1.737885
H	2.808501	2.064903	1.737885
C	-0.439599	-1.858297	0.011685
H	0.254501	-1.857997	0.839085
H	-1.067199	-2.562097	0.538185
H	0.285901	-2.377197	-0.597115
H	1.757101	2.200203	-1.149915
$end

$rem
JOBTYPE		SP
EXCHANGE	HF
CORRELATION	pRIMP2
BASIS		cc-pvtz
METHOD		rimp2
AUX_BASIS	rimp2-cc-pvtz
SOLVENT_METHOD	PCM
PURECART	11111
SYMMETRY	false
MEM_TOTAL	110000
SCF_CONVERGENCE = 6
THRESH=10
$end

$solvent
dielectric 4.90
$end
--------------------------------------------------------------

             Standard Nuclear Orientation (Angstroms)
    I     Atom           X                Y                Z
 ----------------------------------------------------------------
    1      C      -0.4395990000    -0.4175970000     0.0116850000
    2      C       0.1155010000     0.2439030000     1.1110850000
    3      C       1.0051010000     1.3041030000     0.7883850000
    4      H      -0.1214990000    -0.0385970000     2.1477850000
    5      C       1.1470010000     1.4731030000    -0.6008150000
    6      S       0.1662010000     0.3043030000    -1.4751150000
    7      C       1.7043010000     2.1373030000     1.8262850000
    8      H       1.4307010000     1.8113030000     2.8483850000
    9      H       1.4413010000     3.2121030000     1.7378850000
   10      H       2.8085010000     2.0649030000     1.7378850000
   11      C      -0.4395990000    -1.8582970000     0.0116850000
   12      H       0.2545010000    -1.8579970000     0.8390850000
   13      H      -1.0671990000    -2.5620970000     0.5381850000
   14      H       0.2859010000    -2.3771970000    -0.5971150000
   15      H       1.7571010000     2.2002030000    -1.1499150000
 ----------------------------------------------------------------

   10    -629.3853864482      6.22e-07  Convergence criterion met
 Total energy in the final basis set =     -629.3853864482
        RIMP2         total energy =      -630.5709539899 a.u.

                    Orbital Energies (a.u.)
 --------------------------------------------------------------

 Alpha MOs
 -- Occupied --
-91.9779 -11.2694 -11.2621 -11.2479 -11.2345 -11.2278 -11.2114  -8.9779
 -6.6588  -6.6581  -6.6577  -1.1669  -1.0552  -0.9990  -0.9365  -0.8823
 -0.7444  -0.7262  -0.6455  -0.5906  -0.5768  -0.5685  -0.5561  -0.5435
 -0.5122  -0.4755  -0.4649  -0.4487  -0.3336  -0.2938

          Ground-State Mulliken Net Atomic Charges

     Atom                 Charge (a.u.)
  ----------------------------------------
      1 C                    -0.009664
      2 C                    -0.219189
      3 C                     0.016501
      4 H                     0.176633
      5 C                    -0.241691
      6 S                     0.009530
      7 C                    -0.269871
      8 H                     0.101369
      9 H                     0.107301
     10 H                     0.105355
     11 C                    -0.383821
     12 H                     0.140296
     13 H                     0.135858
     14 H                     0.137702
     15 H                     0.193690
  ----------------------------------------
  Sum of atomic charges =     0.000000

                    Cartesian Multipole Moments
 -----------------------------------------------------------------
    Charge (ESU x 10^10)
                -0.0000
    Dipole Moment (Debye)
         X       1.5949      Y      -0.1160      Z       1.9950
       Tot       2.5568
    Quadrupole Moments (Debye-Ang)
        XX     -51.1309     XY       3.5554     YY     -46.6375
        XZ      -0.4154     YZ      -0.9228     ZZ     -48.2519

 Total job time:  160.77s(wall), 158.45s(cpu)
        *  Thank you very much for using Q-Chem.  Have a nice day.  *
