 Q-Chem 5.4, Q-Chem, Inc., Pleasanton, CA (2021)
 Q-Chem 5.4.0 for Intel X86 EM64T Linux

User input:
--------------------------------------------------------------
$molecule
0 1
C	-0.339751	-0.485421	0.010180
C	0.092049	0.262479	1.109580
C	0.784049	1.460979	0.786880
H	-0.092351	-0.056921	2.146280
C	0.894349	1.652079	-0.602320
S	0.131449	0.330679	-1.476620
C	1.327949	2.402979	1.824780
H	1.115149	2.034379	2.846880
H	0.882249	3.415779	1.736380
H	2.427949	2.523379	1.736380
C	-0.339751	-1.926121	0.010180
H	-0.339851	-1.925821	1.090180
H	-1.158951	-2.629921	0.010080
H	0.607349	-2.445021	0.010180
H	1.369049	2.474079	-1.151420
$end

$rem
JOBTYPE		SP
EXCHANGE	HF
CORRELATION	pRIMP2
BASIS		cc-pvtz
METHOD		rimp2
AUX_BASIS	rimp2-cc-pvtz
SOLVENT_METHOD	PCM
PURECART	11111
SYMMETRY	false
MEM_TOTAL	110000
SCF_CONVERGENCE = 6
THRESH=10
$end

$solvent
dielectric 4.90
$end
--------------------------------------------------------------

   10    -629.4074067623      5.06e-07  Convergence criterion met
 Total energy in the final basis set =     -629.4074067623
        RIMP2         total energy =      -630.5891968121 a.u.
 Total job time:  158.20s(wall), 156.66s(cpu)
        *  Thank you very much for using Q-Chem.  Have a nice day.  *
 Q-Chem 5.4, Q-Chem, Inc., Pleasanton, CA (2021)
 Q-Chem 5.4.0 for Intel X86 EM64T Linux

User input:
--------------------------------------------------------------
$molecule
0 1
C	-0.339751	-0.485421	0.010180
C	0.092049	0.262479	1.109580
C	0.784049	1.460979	0.786880
H	-0.092351	-0.056921	2.146280
C	0.894349	1.652079	-0.602320
S	0.131449	0.330679	-1.476620
C	1.327949	2.402979	1.824780
H	1.115149	2.034379	2.846880
H	0.882249	3.415779	1.736380
H	2.427949	2.523379	1.736380
C	-0.339751	-1.926121	0.010180
H	-0.339851	-1.925821	1.090180
H	-1.158951	-2.629921	0.010080
H	0.607349	-2.445021	0.010180
H	1.369049	2.474079	-1.151420
$end

$rem
JOBTYPE		SP
EXCHANGE	HF
CORRELATION	pRIMP2
BASIS		cc-pvtz
METHOD		rimp2
AUX_BASIS	rimp2-cc-pvtz
SOLVENT_METHOD	PCM
PURECART	11111
SYMMETRY	false
MEM_TOTAL	110000
SCF_CONVERGENCE = 6
THRESH=10
$end

$solvent
dielectric 4.90
$end
--------------------------------------------------------------

             Standard Nuclear Orientation (Angstroms)
    I     Atom           X                Y                Z
 ----------------------------------------------------------------
    1      C      -0.3397510000    -0.4854210000     0.0101800000
    2      C       0.0920490000     0.2624790000     1.1095800000
    3      C       0.7840490000     1.4609790000     0.7868800000
    4      H      -0.0923510000    -0.0569210000     2.1462800000
    5      C       0.8943490000     1.6520790000    -0.6023200000
    6      S       0.1314490000     0.3306790000    -1.4766200000
    7      C       1.3279490000     2.4029790000     1.8247800000
    8      H       1.1151490000     2.0343790000     2.8468800000
    9      H       0.8822490000     3.4157790000     1.7363800000
   10      H       2.4279490000     2.5233790000     1.7363800000
   11      C      -0.3397510000    -1.9261210000     0.0101800000
   12      H      -0.3398510000    -1.9258210000     1.0901800000
   13      H      -1.1589510000    -2.6299210000     0.0100800000
   14      H       0.6073490000    -2.4450210000     0.0101800000
   15      H       1.3690490000     2.4740790000    -1.1514200000
 ----------------------------------------------------------------

   10    -629.4074067623      5.06e-07  Convergence criterion met
 Total energy in the final basis set =     -629.4074067623
        RIMP2         total energy =      -630.5891968121 a.u.

                    Orbital Energies (a.u.)
 --------------------------------------------------------------

 Alpha MOs
 -- Occupied --
-91.9739 -11.2705 -11.2628 -11.2474 -11.2384 -11.2279 -11.2137  -8.9743
 -6.6552  -6.6545  -6.6541  -1.1639  -1.0541  -0.9996  -0.9378  -0.8840
 -0.7431  -0.7265  -0.6463  -0.5919  -0.5792  -0.5667  -0.5579  -0.5419
 -0.5128  -0.4788  -0.4675  -0.4344  -0.3369  -0.3046

          Ground-State Mulliken Net Atomic Charges

     Atom                 Charge (a.u.)
  ----------------------------------------
      1 C                     0.018977
      2 C                    -0.255125
      3 C                     0.037018
      4 H                     0.176321
      5 C                    -0.241078
      6 S                    -0.003983
      7 C                    -0.270121
      8 H                     0.101283
      9 H                     0.107025
     10 H                     0.106649
     11 C                    -0.360136
     12 H                     0.116721
     13 H                     0.139382
     14 H                     0.133532
     15 H                     0.193534
  ----------------------------------------
  Sum of atomic charges =     0.000000

                    Cartesian Multipole Moments
 -----------------------------------------------------------------
    Charge (ESU x 10^10)
                -0.0000
    Dipole Moment (Debye)
         X       0.9182      Y       0.0774      Z       2.1953
       Tot       2.3808
    Quadrupole Moments (Debye-Ang)
        XX     -51.6794     XY       3.9455     YY     -44.7805
        XZ      -0.1569     YZ      -1.0969     ZZ     -48.7947

 Total job time:  157.73s(wall), 156.89s(cpu)
        *  Thank you very much for using Q-Chem.  Have a nice day.  *
