 Q-Chem 5.4, Q-Chem, Inc., Pleasanton, CA (2021)
 Q-Chem 5.4.0 for Intel X86 EM64T Linux

User input:
--------------------------------------------------------------
$molecule
0 1
C	-0.236097	-0.535397	0.012353
C	0.059303	0.276103	1.111753
C	0.532603	1.576503	0.789053
H	-0.066797	-0.070397	2.148453
C	0.608103	1.783903	-0.600147
S	0.086203	0.350203	-1.474447
C	0.904703	2.598703	1.826953
H	0.759103	2.198703	2.849053
H	0.289903	3.518703	1.738553
H	1.967103	2.908303	1.738553
C	-0.236097	-1.976097	0.012353
H	0.591203	-1.975797	0.706653
H	-0.762697	-2.679897	0.639853
H	0.372703	-2.494997	-0.713247
H	0.932803	2.675903	-1.149247
$end

$rem
JOBTYPE		SP
EXCHANGE	HF
CORRELATION	pRIMP2
BASIS		cc-pvtz
METHOD		rimp2
AUX_BASIS	rimp2-cc-pvtz
SOLVENT_METHOD	PCM
PURECART	11111
SYMMETRY	false
MEM_TOTAL	110000
SCF_CONVERGENCE = 6
THRESH=10
$end

$solvent
dielectric 4.90
$end
--------------------------------------------------------------

   10    -629.4148936920      5.74e-07  Convergence criterion met
 Total energy in the final basis set =     -629.4148936920
        RIMP2         total energy =      -630.5935371144 a.u.
 Total job time:  160.36s(wall), 158.43s(cpu)
        *  Thank you very much for using Q-Chem.  Have a nice day.  *
 Q-Chem 5.4, Q-Chem, Inc., Pleasanton, CA (2021)
 Q-Chem 5.4.0 for Intel X86 EM64T Linux

User input:
--------------------------------------------------------------
$molecule
0 1
C	-0.236097	-0.535397	0.012353
C	0.059303	0.276103	1.111753
C	0.532603	1.576503	0.789053
H	-0.066797	-0.070397	2.148453
C	0.608103	1.783903	-0.600147
S	0.086203	0.350203	-1.474447
C	0.904703	2.598703	1.826953
H	0.759103	2.198703	2.849053
H	0.289903	3.518703	1.738553
H	1.967103	2.908303	1.738553
C	-0.236097	-1.976097	0.012353
H	0.591203	-1.975797	0.706653
H	-0.762697	-2.679897	0.639853
H	0.372703	-2.494997	-0.713247
H	0.932803	2.675903	-1.149247
$end

$rem
JOBTYPE		SP
EXCHANGE	HF
CORRELATION	pRIMP2
BASIS		cc-pvtz
METHOD		rimp2
AUX_BASIS	rimp2-cc-pvtz
SOLVENT_METHOD	PCM
PURECART	11111
SYMMETRY	false
MEM_TOTAL	110000
SCF_CONVERGENCE = 6
THRESH=10
$end

$solvent
dielectric 4.90
$end
--------------------------------------------------------------

             Standard Nuclear Orientation (Angstroms)
    I     Atom           X                Y                Z
 ----------------------------------------------------------------
    1      C      -0.2360970000    -0.5353970000     0.0123530000
    2      C       0.0593030000     0.2761030000     1.1117530000
    3      C       0.5326030000     1.5765030000     0.7890530000
    4      H      -0.0667970000    -0.0703970000     2.1484530000
    5      C       0.6081030000     1.7839030000    -0.6001470000
    6      S       0.0862030000     0.3502030000    -1.4744470000
    7      C       0.9047030000     2.5987030000     1.8269530000
    8      H       0.7591030000     2.1987030000     2.8490530000
    9      H       0.2899030000     3.5187030000     1.7385530000
   10      H       1.9671030000     2.9083030000     1.7385530000
   11      C      -0.2360970000    -1.9760970000     0.0123530000
   12      H       0.5912030000    -1.9757970000     0.7066530000
   13      H      -0.7626970000    -2.6798970000     0.6398530000
   14      H       0.3727030000    -2.4949970000    -0.7132470000
   15      H       0.9328030000     2.6759030000    -1.1492470000
 ----------------------------------------------------------------

   10    -629.4148936920      5.74e-07  Convergence criterion met
 Total energy in the final basis set =     -629.4148936920
        RIMP2         total energy =      -630.5935371144 a.u.

                    Orbital Energies (a.u.)
 --------------------------------------------------------------

 Alpha MOs
 -- Occupied --
-91.9788 -11.2809 -11.2526 -11.2474 -11.2270 -11.2267 -11.2178  -8.9785
 -6.6594  -6.6589  -6.6583  -1.1620  -1.0552  -0.9984  -0.9394  -0.8830
 -0.7429  -0.7217  -0.6485  -0.5894  -0.5742  -0.5680  -0.5579  -0.5437
 -0.5088  -0.4854  -0.4674  -0.4519  -0.3366  -0.2927

          Ground-State Mulliken Net Atomic Charges

     Atom                 Charge (a.u.)
  ----------------------------------------
      1 C                     0.045625
      2 C                    -0.272669
      3 C                     0.037567
      4 H                     0.174899
      5 C                    -0.267751
      6 S                     0.002278
      7 C                    -0.272303
      8 H                     0.101314
      9 H                     0.107406
     10 H                     0.106585
     11 C                    -0.389340
     12 H                     0.144802
     13 H                     0.151757
     14 H                     0.137207
     15 H                     0.192623
  ----------------------------------------
  Sum of atomic charges =     0.000000

                    Cartesian Multipole Moments
 -----------------------------------------------------------------
    Charge (ESU x 10^10)
                -0.0000
    Dipole Moment (Debye)
         X       0.9869      Y      -0.4493      Z       1.8642
       Tot       2.1566
    Quadrupole Moments (Debye-Ang)
        XX     -53.4265     XY       1.7228     YY     -43.3184
        XZ      -0.2400     YZ      -0.7489     ZZ     -48.5516

 Total job time:  156.64s(wall), 155.84s(cpu)
        *  Thank you very much for using Q-Chem.  Have a nice day.  *
