 Q-Chem 5.4, Q-Chem, Inc., Pleasanton, CA (2021)
 Q-Chem 5.4.0 for Intel X86 EM64T Linux

User input:
--------------------------------------------------------------
$molecule
0 1
C	-0.236768	-0.535395	0.016151
C	0.058632	0.276105	1.115551
C	0.531932	1.576505	0.792851
H	-0.067468	-0.070395	2.152251
C	0.607432	1.783905	-0.596349
S	0.085532	0.350205	-1.470649
C	0.904032	2.598705	1.830751
H	0.758432	2.198705	2.852851
H	0.289232	3.518705	1.742351
H	1.966432	2.908305	1.742351
C	-0.236768	-1.976095	0.016151
H	0.778132	-1.976295	-0.353149
H	-0.516868	-2.679895	-0.753649
H	0.087132	-2.494995	0.906151
H	0.932132	2.675905	-1.145449
$end

$rem
JOBTYPE		SP
EXCHANGE	HF
CORRELATION	pRIMP2
BASIS		cc-pvtz
METHOD		rimp2
AUX_BASIS	rimp2-cc-pvtz
SOLVENT_METHOD	PCM
PURECART	11111
SYMMETRY	false
MEM_TOTAL	110000
SCF_CONVERGENCE = 6
THRESH=10
$end

$solvent
dielectric 4.90
$end
--------------------------------------------------------------

   10    -629.4191317504      6.98e-07  Convergence criterion met
 Total energy in the final basis set =     -629.4191317504
        RIMP2         total energy =      -630.5956655031 a.u.
 Total job time:  158.58s(wall), 157.23s(cpu)
        *  Thank you very much for using Q-Chem.  Have a nice day.  *
 Q-Chem 5.4, Q-Chem, Inc., Pleasanton, CA (2021)
 Q-Chem 5.4.0 for Intel X86 EM64T Linux

User input:
--------------------------------------------------------------
$molecule
0 1
C	-0.236768	-0.535395	0.016151
C	0.058632	0.276105	1.115551
C	0.531932	1.576505	0.792851
H	-0.067468	-0.070395	2.152251
C	0.607432	1.783905	-0.596349
S	0.085532	0.350205	-1.470649
C	0.904032	2.598705	1.830751
H	0.758432	2.198705	2.852851
H	0.289232	3.518705	1.742351
H	1.966432	2.908305	1.742351
C	-0.236768	-1.976095	0.016151
H	0.778132	-1.976295	-0.353149
H	-0.516868	-2.679895	-0.753649
H	0.087132	-2.494995	0.906151
H	0.932132	2.675905	-1.145449
$end

$rem
JOBTYPE		SP
EXCHANGE	HF
CORRELATION	pRIMP2
BASIS		cc-pvtz
METHOD		rimp2
AUX_BASIS	rimp2-cc-pvtz
SOLVENT_METHOD	PCM
PURECART	11111
SYMMETRY	false
MEM_TOTAL	110000
SCF_CONVERGENCE = 6
THRESH=10
$end

$solvent
dielectric 4.90
$end
--------------------------------------------------------------

             Standard Nuclear Orientation (Angstroms)
    I     Atom           X                Y                Z
 ----------------------------------------------------------------
    1      C      -0.2367680000    -0.5353950000     0.0161510000
    2      C       0.0586320000     0.2761050000     1.1155510000
    3      C       0.5319320000     1.5765050000     0.7928510000
    4      H      -0.0674680000    -0.0703950000     2.1522510000
    5      C       0.6074320000     1.7839050000    -0.5963490000
    6      S       0.0855320000     0.3502050000    -1.4706490000
    7      C       0.9040320000     2.5987050000     1.8307510000
    8      H       0.7584320000     2.1987050000     2.8528510000
    9      H       0.2892320000     3.5187050000     1.7423510000
   10      H       1.9664320000     2.9083050000     1.7423510000
   11      C      -0.2367680000    -1.9760950000     0.0161510000
   12      H       0.7781320000    -1.9762950000    -0.3531490000
   13      H      -0.5168680000    -2.6798950000    -0.7536490000
   14      H       0.0871320000    -2.4949950000     0.9061510000
   15      H       0.9321320000     2.6759050000    -1.1454490000
 ----------------------------------------------------------------

   10    -629.4191317504      6.98e-07  Convergence criterion met
 Total energy in the final basis set =     -629.4191317504
        RIMP2         total energy =      -630.5956655031 a.u.

                    Orbital Energies (a.u.)
 --------------------------------------------------------------

 Alpha MOs
 -- Occupied --
-91.9761 -11.2834 -11.2521 -11.2472 -11.2268 -11.2261 -11.2216  -8.9764
 -6.6574  -6.6568  -6.6562  -1.1623  -1.0567  -0.9964  -0.9425  -0.8819
 -0.7455  -0.7194  -0.6471  -0.5897  -0.5786  -0.5672  -0.5505  -0.5474
 -0.5072  -0.4943  -0.4645  -0.4544  -0.3396  -0.2898

          Ground-State Mulliken Net Atomic Charges

     Atom                 Charge (a.u.)
  ----------------------------------------
      1 C                     0.064541
      2 C                    -0.327623
      3 C                     0.063036
      4 H                     0.178046
      5 C                    -0.274592
      6 S                    -0.005352
      7 C                    -0.271350
      8 H                     0.101442
      9 H                     0.107615
     10 H                     0.107153
     11 C                    -0.372510
     12 H                     0.143956
     13 H                     0.155102
     14 H                     0.138049
     15 H                     0.192488
  ----------------------------------------
  Sum of atomic charges =     0.000000

                    Cartesian Multipole Moments
 -----------------------------------------------------------------
    Charge (ESU x 10^10)
                -0.0000
    Dipole Moment (Debye)
         X       1.0939      Y      -0.6152      Z       1.2382
       Tot       1.7631
    Quadrupole Moments (Debye-Ang)
        XX     -53.6706     XY       1.5569     YY     -42.8948
        XZ       0.3444     YZ       0.8972     ZZ     -48.6326

 Total job time:  156.37s(wall), 155.47s(cpu)
        *  Thank you very much for using Q-Chem.  Have a nice day.  *
