 Q-Chem 5.4, Q-Chem, Inc., Pleasanton, CA (2021)
 Q-Chem 5.4.0 for Intel X86 EM64T Linux

User input:
--------------------------------------------------------------
$molecule
0 1
C	-0.063059	-0.573729	0.017955
C	0.012241	0.286571	1.117355
C	0.132841	1.665271	0.794655
H	-0.019859	-0.080829	2.154055
C	0.152141	1.885071	-0.594545
S	0.019141	0.365071	-1.468845
C	0.227741	2.748871	1.832555
H	0.190641	2.324771	2.854655
H	-0.604259	3.478371	1.744155
H	1.173741	3.322871	1.744155
C	-0.063059	-2.014429	0.017955
H	0.872341	-2.014129	-0.521945
H	0.346441	-2.718229	0.727455
H	-0.536659	-2.533329	-0.802245
H	0.234841	2.830671	-1.143645
$end

$rem
JOBTYPE		SP
EXCHANGE	HF
CORRELATION	pRIMP2
BASIS		cc-pvtz
METHOD		rimp2
AUX_BASIS	rimp2-cc-pvtz
SOLVENT_METHOD	PCM
PURECART	11111
SYMMETRY	false
MEM_TOTAL	110000
SCF_CONVERGENCE = 6
THRESH=10
$end

$solvent
dielectric 4.90
$end
--------------------------------------------------------------

             Standard Nuclear Orientation (Angstroms)
    I     Atom           X                Y                Z
 ----------------------------------------------------------------
    1      C      -0.0630590000    -0.5737290000     0.0179550000
    2      C       0.0122410000     0.2865710000     1.1173550000
    3      C       0.1328410000     1.6652710000     0.7946550000
    4      H      -0.0198590000    -0.0808290000     2.1540550000
    5      C       0.1521410000     1.8850710000    -0.5945450000
    6      S       0.0191410000     0.3650710000    -1.4688450000
    7      C       0.2277410000     2.7488710000     1.8325550000
    8      H       0.1906410000     2.3247710000     2.8546550000
    9      H      -0.6042590000     3.4783710000     1.7441550000
   10      H       1.1737410000     3.3228710000     1.7441550000
   11      C      -0.0630590000    -2.0144290000     0.0179550000
   12      H       0.8723410000    -2.0141290000    -0.5219450000
   13      H       0.3464410000    -2.7182290000     0.7274550000
   14      H      -0.5366590000    -2.5333290000    -0.8022450000
   15      H       0.2348410000     2.8306710000    -1.1436450000
 ----------------------------------------------------------------

   10    -629.4236921248      6.89e-07  Convergence criterion met
 Total energy in the final basis set =     -629.4236921248
        RIMP2         total energy =      -630.5989481365 a.u.

                    Orbital Energies (a.u.)
 --------------------------------------------------------------

 Alpha MOs
 -- Occupied --
-91.9785 -11.2832 -11.2514 -11.2467 -11.2264 -11.2242 -11.2208  -8.9785
 -6.6595  -6.6589  -6.6583  -1.1606  -1.0563  -0.9960  -0.9443  -0.8818
 -0.7454  -0.7181  -0.6493  -0.5884  -0.5761  -0.5655  -0.5527  -0.5476
 -0.5076  -0.4924  -0.4658  -0.4546  -0.3394  -0.2916

          Ground-State Mulliken Net Atomic Charges

     Atom                 Charge (a.u.)
  ----------------------------------------
      1 C                     0.062627
      2 C                    -0.305614
      3 C                     0.050970
      4 H                     0.179681
      5 C                    -0.272587
      6 S                    -0.003540
      7 C                    -0.273339
      8 H                     0.101397
      9 H                     0.107312
     10 H                     0.107241
     11 C                    -0.377863
     12 H                     0.133336
     13 H                     0.161546
     14 H                     0.135018
     15 H                     0.193814
  ----------------------------------------
  Sum of atomic charges =     0.000000

                    Cartesian Multipole Moments
 -----------------------------------------------------------------
    Charge (ESU x 10^10)
                -0.0000
    Dipole Moment (Debye)
         X       0.7188      Y      -0.5483      Z       1.0687
       Tot       1.3998
    Quadrupole Moments (Debye-Ang)
        XX     -54.2429     XY      -0.5982     YY     -41.8140
        XZ       0.3264     YZ       0.9030     ZZ     -48.6851

 Total job time:  158.15s(wall), 157.41s(cpu)
        *  Thank you very much for using Q-Chem.  Have a nice day.  *
