 Q-Chem 5.4, Q-Chem, Inc., Pleasanton, CA (2021)
 Q-Chem 5.4.0 for Intel X86 EM64T Linux

User input:
--------------------------------------------------------------
$molecule
0 1
C	-0.334814	-0.485421	0.012833
C	0.096986	0.262479	1.112233
C	0.788986	1.460979	0.789533
H	-0.087414	-0.056921	2.148933
C	0.899286	1.652079	-0.599667
S	0.136386	0.330679	-1.473967
C	1.332886	2.402979	1.827433
H	1.120086	2.034379	2.849533
H	0.887186	3.415779	1.739033
H	2.432886	2.523379	1.739033
C	-0.334814	-1.926121	0.012833
H	-1.349714	-1.925821	0.382133
H	-0.614914	-2.629921	-0.756967
H	-0.010914	-2.445021	0.902833
H	1.373986	2.474079	-1.148767
$end

$rem
JOBTYPE		SP
EXCHANGE	HF
CORRELATION	pRIMP2
BASIS		cc-pvtz
METHOD		rimp2
AUX_BASIS	rimp2-cc-pvtz
SOLVENT_METHOD	PCM
PURECART	11111
SYMMETRY	false
MEM_TOTAL	110000
SCF_CONVERGENCE = 6
THRESH=10
$end

$solvent
dielectric 4.90
$end
--------------------------------------------------------------

   10    -629.4012512512      5.66e-07  Convergence criterion met
 Total energy in the final basis set =     -629.4012512512
        RIMP2         total energy =      -630.5831367572 a.u.
 Total job time:  157.55s(wall), 155.29s(cpu)
        *  Thank you very much for using Q-Chem.  Have a nice day.  *
 Q-Chem 5.4, Q-Chem, Inc., Pleasanton, CA (2021)
 Q-Chem 5.4.0 for Intel X86 EM64T Linux

User input:
--------------------------------------------------------------
$molecule
0 1
C	-0.334814	-0.485421	0.012833
C	0.096986	0.262479	1.112233
C	0.788986	1.460979	0.789533
H	-0.087414	-0.056921	2.148933
C	0.899286	1.652079	-0.599667
S	0.136386	0.330679	-1.473967
C	1.332886	2.402979	1.827433
H	1.120086	2.034379	2.849533
H	0.887186	3.415779	1.739033
H	2.432886	2.523379	1.739033
C	-0.334814	-1.926121	0.012833
H	-1.349714	-1.925821	0.382133
H	-0.614914	-2.629921	-0.756967
H	-0.010914	-2.445021	0.902833
H	1.373986	2.474079	-1.148767
$end

$rem
JOBTYPE		SP
EXCHANGE	HF
CORRELATION	pRIMP2
BASIS		cc-pvtz
METHOD		rimp2
AUX_BASIS	rimp2-cc-pvtz
SOLVENT_METHOD	PCM
PURECART	11111
SYMMETRY	false
MEM_TOTAL	110000
SCF_CONVERGENCE = 6
THRESH=10
$end

$solvent
dielectric 4.90
$end
--------------------------------------------------------------

             Standard Nuclear Orientation (Angstroms)
    I     Atom           X                Y                Z
 ----------------------------------------------------------------
    1      C      -0.3348140000    -0.4854210000     0.0128330000
    2      C       0.0969860000     0.2624790000     1.1122330000
    3      C       0.7889860000     1.4609790000     0.7895330000
    4      H      -0.0874140000    -0.0569210000     2.1489330000
    5      C       0.8992860000     1.6520790000    -0.5996670000
    6      S       0.1363860000     0.3306790000    -1.4739670000
    7      C       1.3328860000     2.4029790000     1.8274330000
    8      H       1.1200860000     2.0343790000     2.8495330000
    9      H       0.8871860000     3.4157790000     1.7390330000
   10      H       2.4328860000     2.5233790000     1.7390330000
   11      C      -0.3348140000    -1.9261210000     0.0128330000
   12      H      -1.3497140000    -1.9258210000     0.3821330000
   13      H      -0.6149140000    -2.6299210000    -0.7569670000
   14      H      -0.0109140000    -2.4450210000     0.9028330000
   15      H       1.3739860000     2.4740790000    -1.1487670000
 ----------------------------------------------------------------

   10    -629.4012512512      5.66e-07  Convergence criterion met
 Total energy in the final basis set =     -629.4012512512
        RIMP2         total energy =      -630.5831367572 a.u.

                    Orbital Energies (a.u.)
 --------------------------------------------------------------

 Alpha MOs
 -- Occupied --
-91.9749 -11.2757 -11.2555 -11.2476 -11.2309 -11.2270 -11.2157  -8.9751
 -6.6561  -6.6554  -6.6549  -1.1618  -1.0545  -0.9975  -0.9402  -0.8832
 -0.7437  -0.7215  -0.6451  -0.5876  -0.5761  -0.5681  -0.5552  -0.5438
 -0.5117  -0.4937  -0.4593  -0.4450  -0.3371  -0.2882

          Ground-State Mulliken Net Atomic Charges

     Atom                 Charge (a.u.)
  ----------------------------------------
      1 C                     0.033355
      2 C                    -0.290137
      3 C                     0.049201
      4 H                     0.175928
      5 C                    -0.259605
      6 S                     0.003137
      7 C                    -0.270605
      8 H                     0.101339
      9 H                     0.107155
     10 H                     0.106692
     11 C                    -0.383853
     12 H                     0.134318
     13 H                     0.159072
     14 H                     0.142674
     15 H                     0.191329
  ----------------------------------------
  Sum of atomic charges =     0.000000

                    Cartesian Multipole Moments
 -----------------------------------------------------------------
    Charge (ESU x 10^10)
                -0.0000
    Dipole Moment (Debye)
         X       0.0508      Y      -0.4162      Z       1.7526
       Tot       1.8020
    Quadrupole Moments (Debye-Ang)
        XX     -51.8621     XY       5.2944     YY     -44.5087
        XZ       0.2763     YZ      -0.0691     ZZ     -48.4356

 Total job time:  156.11s(wall), 155.22s(cpu)
        *  Thank you very much for using Q-Chem.  Have a nice day.  *
