 Q-Chem 5.4, Q-Chem, Inc., Pleasanton, CA (2021)
 Q-Chem 5.4.0 for Intel X86 EM64T Linux

User input:
--------------------------------------------------------------
$molecule
0 1
C	-0.515153	-0.333972	0.013104
C	0.146447	0.221128	1.112504
C	1.206547	1.110628	0.789804
H	-0.136053	-0.015972	2.149204
C	1.375647	1.252428	-0.599396
S	0.206747	0.271728	-1.473696
C	2.039847	1.809828	1.827704
H	1.713747	1.536228	2.849804
H	1.967447	2.914028	1.739304
H	3.114647	1.546728	1.739304
C	-0.515153	-1.774672	0.013104
H	-1.450553	-1.774872	0.553004
H	-0.105653	-2.478472	0.722604
H	-0.988753	-2.293572	-0.807096
H	2.102747	1.862628	-1.148496
$end

$rem
JOBTYPE		SP
EXCHANGE	HF
CORRELATION	pRIMP2
BASIS		cc-pvtz
METHOD		rimp2
AUX_BASIS	rimp2-cc-pvtz
SOLVENT_METHOD	PCM
PURECART	11111
SYMMETRY	false
MEM_TOTAL	110000
SCF_CONVERGENCE = 6
THRESH=10
$end

$solvent
dielectric 4.90
$end
--------------------------------------------------------------

             Standard Nuclear Orientation (Angstroms)
    I     Atom           X                Y                Z
 ----------------------------------------------------------------
    1      C      -0.5151530000    -0.3339720000     0.0131040000
    2      C       0.1464470000     0.2211280000     1.1125040000
    3      C       1.2065470000     1.1106280000     0.7898040000
    4      H      -0.1360530000    -0.0159720000     2.1492040000
    5      C       1.3756470000     1.2524280000    -0.5993960000
    6      S       0.2067470000     0.2717280000    -1.4736960000
    7      C       2.0398470000     1.8098280000     1.8277040000
    8      H       1.7137470000     1.5362280000     2.8498040000
    9      H       1.9674470000     2.9140280000     1.7393040000
   10      H       3.1146470000     1.5467280000     1.7393040000
   11      C      -0.5151530000    -1.7746720000     0.0131040000
   12      H      -1.4505530000    -1.7748720000     0.5530040000
   13      H      -0.1056530000    -2.4784720000     0.7226040000
   14      H      -0.9887530000    -2.2935720000    -0.8070960000
   15      H       2.1027470000     1.8626280000    -1.1484960000
 ----------------------------------------------------------------

   11    -629.3664328730      4.02e-07  Convergence criterion met
 Total energy in the final basis set =     -629.3664328730
        RIMP2         total energy =      -630.5556120485 a.u.

                    Orbital Energies (a.u.)
 --------------------------------------------------------------

 Alpha MOs
 -- Occupied --
-91.9719 -11.2718 -11.2546 -11.2487 -11.2449 -11.2282 -11.2087  -8.9728
 -6.6536  -6.6527  -6.6524  -1.1673  -1.0539  -0.9977  -0.9389  -0.8830
 -0.7466  -0.7273  -0.6449  -0.5843  -0.5792  -0.5645  -0.5558  -0.5425
 -0.5172  -0.4894  -0.4596  -0.4268  -0.3365  -0.2901

          Ground-State Mulliken Net Atomic Charges

     Atom                 Charge (a.u.)
  ----------------------------------------
      1 C                    -0.053407
      2 C                    -0.189444
      3 C                     0.007185
      4 H                     0.180341
      5 C                    -0.207869
      6 S                     0.006829
      7 C                    -0.269335
      8 H                     0.101512
      9 H                     0.106880
     10 H                     0.105531
     11 C                    -0.388536
     12 H                     0.124651
     13 H                     0.153169
     14 H                     0.128776
     15 H                     0.193717
  ----------------------------------------
  Sum of atomic charges =     0.000000

                    Cartesian Multipole Moments
 -----------------------------------------------------------------
    Charge (ESU x 10^10)
                -0.0000
    Dipole Moment (Debye)
         X       1.2082      Y       0.0809      Z       1.9809
       Tot       2.3217
    Quadrupole Moments (Debye-Ang)
        XX     -48.9761     XY       5.5883     YY     -48.2632
        XZ       0.0773     YZ      -0.5491     ZZ     -48.0525

 Total job time:  170.10s(wall), 169.24s(cpu)
        *  Thank you very much for using Q-Chem.  Have a nice day.  *
