 Q-Chem 5.4, Q-Chem, Inc., Pleasanton, CA (2021)
 Q-Chem 5.4.0 for Intel X86 EM64T Linux

User input:
--------------------------------------------------------------
$molecule
0 1
C	-0.176694	-0.553191	0.019787
C	0.046806	0.281009	1.119187
C	0.405006	1.617709	0.796487
H	-0.048594	-0.075291	2.155887
C	0.462206	1.830809	-0.592713
S	0.067206	0.357109	-1.467013
C	0.686606	2.668409	1.834387
H	0.576406	2.257309	2.856487
H	-0.005994	3.531409	1.745987
H	1.717906	3.069409	1.745987
C	-0.176694	-1.993891	0.019787
H	0.192806	-1.993591	-0.995013
H	0.593106	-2.697691	0.299987
H	-1.066694	-2.512791	-0.304113
H	0.707906	2.747709	-1.141813
$end

$rem
JOBTYPE		SP
EXCHANGE	HF
CORRELATION	pRIMP2
BASIS		cc-pvtz
METHOD		rimp2
AUX_BASIS	rimp2-cc-pvtz
SOLVENT_METHOD	PCM
PURECART	11111
SYMMETRY	false
MEM_TOTAL	110000
SCF_CONVERGENCE = 6
THRESH=10
$end

$solvent
dielectric 4.90
$end
--------------------------------------------------------------

             Standard Nuclear Orientation (Angstroms)
    I     Atom           X                Y                Z
 ----------------------------------------------------------------
    1      C      -0.1766940000    -0.5531910000     0.0197870000
    2      C       0.0468060000     0.2810090000     1.1191870000
    3      C       0.4050060000     1.6177090000     0.7964870000
    4      H      -0.0485940000    -0.0752910000     2.1558870000
    5      C       0.4622060000     1.8308090000    -0.5927130000
    6      S       0.0672060000     0.3571090000    -1.4670130000
    7      C       0.6866060000     2.6684090000     1.8343870000
    8      H       0.5764060000     2.2573090000     2.8564870000
    9      H      -0.0059940000     3.5314090000     1.7459870000
   10      H       1.7179060000     3.0694090000     1.7459870000
   11      C      -0.1766940000    -1.9938910000     0.0197870000
   12      H       0.1928060000    -1.9935910000    -0.9950130000
   13      H       0.5931060000    -2.6976910000     0.2999870000
   14      H      -1.0666940000    -2.5127910000    -0.3041130000
   15      H       0.7079060000     2.7477090000    -1.1418130000
 ----------------------------------------------------------------

   10    -629.4156314656      5.71e-07  Convergence criterion met
 Total energy in the final basis set =     -629.4156314656
        RIMP2         total energy =      -630.5941124577 a.u.

                    Orbital Energies (a.u.)
 --------------------------------------------------------------

 Alpha MOs
 -- Occupied --
-91.9792 -11.2743 -11.2583 -11.2469 -11.2301 -11.2269 -11.2154  -8.9793
 -6.6602  -6.6596  -6.6590  -1.1616  -1.0553  -0.9950  -0.9461  -0.8813
 -0.7480  -0.7190  -0.6482  -0.5899  -0.5762  -0.5656  -0.5534  -0.5475
 -0.5101  -0.4845  -0.4646  -0.4452  -0.3385  -0.3016

          Ground-State Mulliken Net Atomic Charges

     Atom                 Charge (a.u.)
  ----------------------------------------
      1 C                     0.047430
      2 C                    -0.275113
      3 C                     0.046927
      4 H                     0.180052
      5 C                    -0.258066
      6 S                    -0.004149
      7 C                    -0.272806
      8 H                     0.101827
      9 H                     0.107074
     10 H                     0.106770
     11 C                    -0.368146
     12 H                     0.118469
     13 H                     0.149616
     14 H                     0.124900
     15 H                     0.195214
  ----------------------------------------
  Sum of atomic charges =     0.000000

                    Cartesian Multipole Moments
 -----------------------------------------------------------------
    Charge (ESU x 10^10)
                -0.0000
    Dipole Moment (Debye)
         X       0.6207      Y      -0.0013      Z       0.8845
       Tot       1.0806
    Quadrupole Moments (Debye-Ang)
        XX     -53.3030     XY       1.6021     YY     -42.8624
        XZ       0.3115     YZ       1.3953     ZZ     -48.7583

 Total job time:  155.84s(wall), 155.10s(cpu)
        *  Thank you very much for using Q-Chem.  Have a nice day.  *
