 Q-Chem 5.4, Q-Chem, Inc., Pleasanton, CA (2021)
 Q-Chem 5.4.0 for Intel X86 EM64T Linux

User input:
--------------------------------------------------------------
$molecule
0 1
C	-0.440796	-0.417597	0.013912
C	0.114304	0.243903	1.113312
C	1.003904	1.304103	0.790612
H	-0.122696	-0.038597	2.150012
C	1.145804	1.473103	-0.598588
S	0.165004	0.304303	-1.472888
C	1.703104	2.137303	1.828512
H	1.429504	1.811303	2.850612
H	1.440104	3.212103	1.740112
H	2.807304	2.064903	1.740112
C	-0.440796	-1.858297	0.013912
H	0.574004	-1.857997	0.383412
H	-0.720996	-2.562097	0.783712
H	-0.116896	-2.377197	-0.876088
H	1.755904	2.200203	-1.147688
$end

$rem
JOBTYPE		SP
EXCHANGE	HF
CORRELATION	pRIMP2
BASIS		cc-pvtz
METHOD		rimp2
AUX_BASIS	rimp2-cc-pvtz
SOLVENT_METHOD	PCM
PURECART	11111
SYMMETRY	false
MEM_TOTAL	110000
SCF_CONVERGENCE = 6
THRESH=10
$end

$solvent
dielectric 4.90
$end
--------------------------------------------------------------

             Standard Nuclear Orientation (Angstroms)
    I     Atom           X                Y                Z
 ----------------------------------------------------------------
    1      C      -0.4407960000    -0.4175970000     0.0139120000
    2      C       0.1143040000     0.2439030000     1.1133120000
    3      C       1.0039040000     1.3041030000     0.7906120000
    4      H      -0.1226960000    -0.0385970000     2.1500120000
    5      C       1.1458040000     1.4731030000    -0.5985880000
    6      S       0.1650040000     0.3043030000    -1.4728880000
    7      C       1.7031040000     2.1373030000     1.8285120000
    8      H       1.4295040000     1.8113030000     2.8506120000
    9      H       1.4401040000     3.2121030000     1.7401120000
   10      H       2.8073040000     2.0649030000     1.7401120000
   11      C      -0.4407960000    -1.8582970000     0.0139120000
   12      H       0.5740040000    -1.8579970000     0.3834120000
   13      H      -0.7209960000    -2.5620970000     0.7837120000
   14      H      -0.1168960000    -2.3771970000    -0.8760880000
   15      H       1.7559040000     2.2002030000    -1.1476880000
 ----------------------------------------------------------------

   10    -629.3896723736      5.73e-07  Convergence criterion met
 Total energy in the final basis set =     -629.3896723736
        RIMP2         total energy =      -630.5737088085 a.u.

                    Orbital Energies (a.u.)
 --------------------------------------------------------------

 Alpha MOs
 -- Occupied --
-91.9792 -11.2748 -11.2588 -11.2487 -11.2287 -11.2275 -11.2167  -8.9792
 -6.6601  -6.6595  -6.6590  -1.1673  -1.0566  -0.9976  -0.9383  -0.8817
 -0.7455  -0.7233  -0.6470  -0.5885  -0.5772  -0.5674  -0.5552  -0.5453
 -0.5089  -0.4870  -0.4591  -0.4581  -0.3367  -0.2873

          Ground-State Mulliken Net Atomic Charges

     Atom                 Charge (a.u.)
  ----------------------------------------
      1 C                    -0.001354
      2 C                    -0.240759
      3 C                     0.030599
      4 H                     0.174783
      5 C                    -0.258875
      6 S                     0.013341
      7 C                    -0.269847
      8 H                     0.101802
      9 H                     0.107631
     10 H                     0.105306
     11 C                    -0.380395
     12 H                     0.145996
     13 H                     0.144110
     14 H                     0.133380
     15 H                     0.194284
  ----------------------------------------
  Sum of atomic charges =     0.000000

                    Cartesian Multipole Moments
 -----------------------------------------------------------------
    Charge (ESU x 10^10)
                -0.0000
    Dipole Moment (Debye)
         X       1.6445      Y      -0.3956      Z       1.6675
       Tot       2.3751
    Quadrupole Moments (Debye-Ang)
        XX     -51.5937     XY       3.3695     YY     -46.2405
        XZ      -0.0939     YZ      -0.5038     ZZ     -48.1894

 Total job time:  161.55s(wall), 160.01s(cpu)
        *  Thank you very much for using Q-Chem.  Have a nice day.  *
