 Q-Chem 5.4, Q-Chem, Inc., Pleasanton, CA (2021)
 Q-Chem 5.4.0 for Intel X86 EM64T Linux

User input:
--------------------------------------------------------------
$molecule
0 1
C	-0.524321	-0.333974	0.016439
C	0.137279	0.221126	1.115839
C	1.197379	1.110626	0.793139
H	-0.145221	-0.015974	2.152539
C	1.366479	1.252426	-0.596061
S	0.197579	0.271726	-1.470361
C	2.030679	1.809826	1.831039
H	1.704579	1.536226	2.853139
H	1.958279	2.914026	1.742639
H	3.105479	1.546726	1.742639
C	-0.524321	-1.774674	0.016439
H	0.539279	-1.774374	-0.170961
H	-0.382121	-2.478474	0.823239
H	-0.688821	-2.293574	-0.916261
H	2.093579	1.862626	-1.145161
$end

$rem
JOBTYPE		SP
EXCHANGE	HF
CORRELATION	pRIMP2
BASIS		cc-pvtz
METHOD		rimp2
AUX_BASIS	rimp2-cc-pvtz
SOLVENT_METHOD	PCM
PURECART	11111
SYMMETRY	false
MEM_TOTAL	110000
SCF_CONVERGENCE = 6
THRESH=10
$end

$solvent
dielectric 4.90
$end
--------------------------------------------------------------

             Standard Nuclear Orientation (Angstroms)
    I     Atom           X                Y                Z
 ----------------------------------------------------------------
    1      C      -0.5243210000    -0.3339740000     0.0164390000
    2      C       0.1372790000     0.2211260000     1.1158390000
    3      C       1.1973790000     1.1106260000     0.7931390000
    4      H      -0.1452210000    -0.0159740000     2.1525390000
    5      C       1.3664790000     1.2524260000    -0.5960610000
    6      S       0.1975790000     0.2717260000    -1.4703610000
    7      C       2.0306790000     1.8098260000     1.8310390000
    8      H       1.7045790000     1.5362260000     2.8531390000
    9      H       1.9582790000     2.9140260000     1.7426390000
   10      H       3.1054790000     1.5467260000     1.7426390000
   11      C      -0.5243210000    -1.7746740000     0.0164390000
   12      H       0.5392790000    -1.7743740000    -0.1709610000
   13      H      -0.3821210000    -2.4784740000     0.8232390000
   14      H      -0.6888210000    -2.2935740000    -0.9162610000
   15      H       2.0935790000     1.8626260000    -1.1451610000
 ----------------------------------------------------------------

   10    -629.3741297821      6.19e-07  Convergence criterion met
 Total energy in the final basis set =     -629.3741297821
        RIMP2         total energy =      -630.5608671629 a.u.

                    Orbital Energies (a.u.)
 --------------------------------------------------------------

 Alpha MOs
 -- Occupied --
-91.9746 -11.2687 -11.2674 -11.2498 -11.2367 -11.2283 -11.2169  -8.9755
 -6.6564  -6.6557  -6.6553  -1.1723  -1.0584  -0.9964  -0.9402  -0.8804
 -0.7498  -0.7255  -0.6471  -0.5876  -0.5824  -0.5654  -0.5538  -0.5462
 -0.5094  -0.4941  -0.4612  -0.4440  -0.3399  -0.2881

          Ground-State Mulliken Net Atomic Charges

     Atom                 Charge (a.u.)
  ----------------------------------------
      1 C                    -0.019373
      2 C                    -0.224226
      3 C                     0.022350
      4 H                     0.178668
      5 C                    -0.233614
      6 S                     0.003166
      7 C                    -0.268884
      8 H                     0.102210
      9 H                     0.107690
     10 H                     0.105516
     11 C                    -0.365041
     12 H                     0.128614
     13 H                     0.146897
     14 H                     0.120347
     15 H                     0.195680
  ----------------------------------------
  Sum of atomic charges =     0.000000

                    Cartesian Multipole Moments
 -----------------------------------------------------------------
    Charge (ESU x 10^10)
                -0.0000
    Dipole Moment (Debye)
         X       2.1391      Y      -0.2535      Z       1.5252
       Tot       2.6393
    Quadrupole Moments (Debye-Ang)
        XX     -50.2509     XY       3.7903     YY     -47.8586
        XZ       0.1162     YZ       0.0439     ZZ     -48.1352

 Total job time:  163.92s(wall), 161.90s(cpu)
        *  Thank you very much for using Q-Chem.  Have a nice day.  *
