 Q-Chem 5.4, Q-Chem, Inc., Pleasanton, CA (2021)
 Q-Chem 5.4.0 for Intel X86 EM64T Linux

User input:
--------------------------------------------------------------
$molecule
0 1
C	-0.054390	-0.573729	0.016152
C	0.020910	0.286571	1.115552
C	0.141510	1.665271	0.792852
H	-0.011190	-0.080829	2.152252
C	0.160810	1.885071	-0.596348
S	0.027810	0.365071	-1.470648
C	0.236410	2.748871	1.830752
H	0.199310	2.324771	2.852852
H	-0.595590	3.478371	1.742352
H	1.182410	3.322871	1.742352
C	-0.054390	-2.014429	0.016152
H	-1.069190	-2.014129	-0.353348
H	0.225810	-2.718229	-0.753648
H	-0.378290	-2.533329	0.906152
H	0.243510	2.830671	-1.145448
$end

$rem
JOBTYPE		SP
EXCHANGE	HF
CORRELATION	pRIMP2
BASIS		cc-pvtz
METHOD		rimp2
AUX_BASIS	rimp2-cc-pvtz
SOLVENT_METHOD	PCM
PURECART	11111
SYMMETRY	false
MEM_TOTAL	110000
SCF_CONVERGENCE = 6
THRESH=10
$end

$solvent
dielectric 4.90
$end
--------------------------------------------------------------

             Standard Nuclear Orientation (Angstroms)
    I     Atom           X                Y                Z
 ----------------------------------------------------------------
    1      C      -0.0543900000    -0.5737290000     0.0161520000
    2      C       0.0209100000     0.2865710000     1.1155520000
    3      C       0.1415100000     1.6652710000     0.7928520000
    4      H      -0.0111900000    -0.0808290000     2.1522520000
    5      C       0.1608100000     1.8850710000    -0.5963480000
    6      S       0.0278100000     0.3650710000    -1.4706480000
    7      C       0.2364100000     2.7488710000     1.8307520000
    8      H       0.1993100000     2.3247710000     2.8528520000
    9      H      -0.5955900000     3.4783710000     1.7423520000
   10      H       1.1824100000     3.3228710000     1.7423520000
   11      C      -0.0543900000    -2.0144290000     0.0161520000
   12      H      -1.0691900000    -2.0141290000    -0.3533480000
   13      H       0.2258100000    -2.7182290000    -0.7536480000
   14      H      -0.3782900000    -2.5333290000     0.9061520000
   15      H       0.2435100000     2.8306710000    -1.1454480000
 ----------------------------------------------------------------

   10    -629.4234731251      6.69e-07  Convergence criterion met
 Total energy in the final basis set =     -629.4234731251
        RIMP2         total energy =      -630.5990389800 a.u.

                    Orbital Energies (a.u.)
 --------------------------------------------------------------

 Alpha MOs
 -- Occupied --
-91.9777 -11.2842 -11.2504 -11.2469 -11.2264 -11.2246 -11.2212  -8.9776
 -6.6586  -6.6581  -6.6574  -1.1602  -1.0560  -0.9968  -0.9433  -0.8825
 -0.7448  -0.7184  -0.6475  -0.5899  -0.5753  -0.5697  -0.5504  -0.5470
 -0.5083  -0.4923  -0.4647  -0.4556  -0.3388  -0.2900

          Ground-State Mulliken Net Atomic Charges

     Atom                 Charge (a.u.)
  ----------------------------------------
      1 C                     0.051811
      2 C                    -0.286394
      3 C                     0.040325
      4 H                     0.180437
      5 C                    -0.271031
      6 S                    -0.008515
      7 C                    -0.274138
      8 H                     0.101247
      9 H                     0.107232
     10 H                     0.107295
     11 C                    -0.376238
     12 H                     0.136077
     13 H                     0.158984
     14 H                     0.139446
     15 H                     0.193462
  ----------------------------------------
  Sum of atomic charges =     0.000000

                    Cartesian Multipole Moments
 -----------------------------------------------------------------
    Charge (ESU x 10^10)
                -0.0000
    Dipole Moment (Debye)
         X      -0.5847      Y      -0.6271      Z       1.1877
       Tot       1.4648
    Quadrupole Moments (Debye-Ang)
        XX     -54.2122     XY       2.1839     YY     -41.7772
        XZ      -0.1812     YZ       0.9562     ZZ     -48.6244

 Total job time:  161.92s(wall), 159.66s(cpu)
        *  Thank you very much for using Q-Chem.  Have a nice day.  *
