 Q-Chem 5.4, Q-Chem, Inc., Pleasanton, CA (2021)
 Q-Chem 5.4.0 for Intel X86 EM64T Linux

User input:
--------------------------------------------------------------
$molecule
0 1
C	-0.287815	-0.512746	0.019787
C	0.077185	0.269954	1.119187
C	0.662085	1.524154	0.796487
H	-0.078715	-0.064346	2.155887
C	0.755385	1.724154	-0.592713
S	0.110485	0.341354	-1.467013
C	1.121785	2.509954	1.834387
H	0.941885	2.124254	2.856487
H	0.589485	3.480154	1.745987
H	2.207085	2.725854	1.745987
C	-0.287815	-1.953446	0.019787
H	0.081685	-1.953146	-0.995013
H	0.481985	-2.657246	0.299987
H	-1.177815	-2.472346	-0.304113
H	1.156485	2.584454	-1.141813
$end

$rem
JOBTYPE		SP
EXCHANGE	HF
CORRELATION	pRIMP2
BASIS		cc-pvtz
METHOD		rimp2
AUX_BASIS	rimp2-cc-pvtz
SOLVENT_METHOD	PCM
PURECART	11111
SYMMETRY	false
MEM_TOTAL	110000
SCF_CONVERGENCE = 6
THRESH=10
$end

$solvent
dielectric 4.90
$end
--------------------------------------------------------------

             Standard Nuclear Orientation (Angstroms)
    I     Atom           X                Y                Z
 ----------------------------------------------------------------
    1      C      -0.2878150000    -0.5127460000     0.0197870000
    2      C       0.0771850000     0.2699540000     1.1191870000
    3      C       0.6620850000     1.5241540000     0.7964870000
    4      H      -0.0787150000    -0.0643460000     2.1558870000
    5      C       0.7553850000     1.7241540000    -0.5927130000
    6      S       0.1104850000     0.3413540000    -1.4670130000
    7      C       1.1217850000     2.5099540000     1.8343870000
    8      H       0.9418850000     2.1242540000     2.8564870000
    9      H       0.5894850000     3.4801540000     1.7459870000
   10      H       2.2070850000     2.7258540000     1.7459870000
   11      C      -0.2878150000    -1.9534460000     0.0197870000
   12      H       0.0816850000    -1.9531460000    -0.9950130000
   13      H       0.4819850000    -2.6572460000     0.2999870000
   14      H      -1.1778150000    -2.4723460000    -0.3041130000
   15      H       1.1564850000     2.5844540000    -1.1418130000
 ----------------------------------------------------------------

   10    -629.4064469391      5.64e-07  Convergence criterion met
 Total energy in the final basis set =     -629.4064469391
        RIMP2         total energy =      -630.5868567674 a.u.

                    Orbital Energies (a.u.)
 --------------------------------------------------------------

 Alpha MOs
 -- Occupied --
-91.9779 -11.2707 -11.2610 -11.2470 -11.2328 -11.2271 -11.2136  -8.9782
 -6.6591  -6.6585  -6.6579  -1.1630  -1.0553  -0.9946  -0.9458  -0.8808
 -0.7488  -0.7199  -0.6475  -0.5887  -0.5772  -0.5662  -0.5527  -0.5476
 -0.5118  -0.4808  -0.4641  -0.4438  -0.3380  -0.3014

          Ground-State Mulliken Net Atomic Charges

     Atom                 Charge (a.u.)
  ----------------------------------------
      1 C                     0.028759
      2 C                    -0.269019
      3 C                     0.047251
      4 H                     0.179683
      5 C                    -0.251045
      6 S                    -0.005004
      7 C                    -0.271831
      8 H                     0.101903
      9 H                     0.107130
     10 H                     0.106334
     11 C                    -0.366088
     12 H                     0.121678
     13 H                     0.152831
     14 H                     0.122077
     15 H                     0.195341
  ----------------------------------------
  Sum of atomic charges =     0.000000

                    Cartesian Multipole Moments
 -----------------------------------------------------------------
    Charge (ESU x 10^10)
                -0.0000
    Dipole Moment (Debye)
         X       0.9435      Y       0.0734      Z       0.9270
       Tot       1.3247
    Quadrupole Moments (Debye-Ang)
        XX     -52.4602     XY       2.7797     YY     -44.0758
        XZ       0.3534     YZ       1.3408     ZZ     -48.6550

 Total job time:  158.57s(wall), 156.00s(cpu)
        *  Thank you very much for using Q-Chem.  Have a nice day.  *
