 Q-Chem 5.4, Q-Chem, Inc., Pleasanton, CA (2021)
 Q-Chem 5.4.0 for Intel X86 EM64T Linux

User input:
--------------------------------------------------------------
$molecule
0 1
C	-0.291058	-0.512746	0.017231
C	0.073942	0.269954	1.116631
C	0.658842	1.524154	0.793931
H	-0.081958	-0.064346	2.153331
C	0.752142	1.724154	-0.595269
S	0.107242	0.341354	-1.469569
C	1.118542	2.509954	1.831831
H	0.938642	2.124254	2.853931
H	0.586242	3.480154	1.743431
H	2.203842	2.725854	1.743431
C	-0.291058	-1.953446	0.017231
H	0.723842	-1.953146	-0.352069
H	-0.010958	-2.657246	0.787031
H	-0.614958	-2.472346	-0.872769
H	1.153242	2.584454	-1.144369
$end

$rem
JOBTYPE		SP
EXCHANGE	HF
CORRELATION	pRIMP2
BASIS		cc-pvtz
METHOD		rimp2
AUX_BASIS	rimp2-cc-pvtz
SOLVENT_METHOD	PCM
PURECART	11111
SYMMETRY	false
MEM_TOTAL	110000
SCF_CONVERGENCE = 6
THRESH=10
$end

$solvent
dielectric 4.90
$end
--------------------------------------------------------------

             Standard Nuclear Orientation (Angstroms)
    I     Atom           X                Y                Z
 ----------------------------------------------------------------
    1      C      -0.2910580000    -0.5127460000     0.0172310000
    2      C       0.0739420000     0.2699540000     1.1166310000
    3      C       0.6588420000     1.5241540000     0.7939310000
    4      H      -0.0819580000    -0.0643460000     2.1533310000
    5      C       0.7521420000     1.7241540000    -0.5952690000
    6      S       0.1072420000     0.3413540000    -1.4695690000
    7      C       1.1185420000     2.5099540000     1.8318310000
    8      H       0.9386420000     2.1242540000     2.8539310000
    9      H       0.5862420000     3.4801540000     1.7434310000
   10      H       2.2038420000     2.7258540000     1.7434310000
   11      C      -0.2910580000    -1.9534460000     0.0172310000
   12      H       0.7238420000    -1.9531460000    -0.3520690000
   13      H      -0.0109580000    -2.6572460000     0.7870310000
   14      H      -0.6149580000    -2.4723460000    -0.8727690000
   15      H       1.1532420000     2.5844540000    -1.1443690000
 ----------------------------------------------------------------

   10    -629.4136056202      7.11e-07  Convergence criterion met
 Total energy in the final basis set =     -629.4136056202
        RIMP2         total energy =      -630.5911414890 a.u.

                    Orbital Energies (a.u.)
 --------------------------------------------------------------

 Alpha MOs
 -- Occupied --
-91.9768 -11.2813 -11.2538 -11.2473 -11.2268 -11.2261 -11.2208  -8.9770
 -6.6580  -6.6575  -6.6568  -1.1632  -1.0568  -0.9957  -0.9429  -0.8813
 -0.7459  -0.7196  -0.6488  -0.5862  -0.5793  -0.5647  -0.5527  -0.5474
 -0.5079  -0.4937  -0.4636  -0.4547  -0.3399  -0.2893

          Ground-State Mulliken Net Atomic Charges

     Atom                 Charge (a.u.)
  ----------------------------------------
      1 C                     0.057999
      2 C                    -0.326080
      3 C                     0.064116
      4 H                     0.176910
      5 C                    -0.273048
      6 S                    -0.002795
      7 C                    -0.271124
      8 H                     0.101621
      9 H                     0.107633
     10 H                     0.106872
     11 C                    -0.370255
     12 H                     0.143979
     13 H                     0.160310
     14 H                     0.130801
     15 H                     0.193061
  ----------------------------------------
  Sum of atomic charges =     0.000000

                    Cartesian Multipole Moments
 -----------------------------------------------------------------
    Charge (ESU x 10^10)
                -0.0000
    Dipole Moment (Debye)
         X       1.2189      Y      -0.5506      Z       1.2407
       Tot       1.8243
    Quadrupole Moments (Debye-Ang)
        XX     -53.2261     XY       2.0868     YY     -43.5298
        XZ       0.3527     YZ       0.5643     ZZ     -48.5999

 Total job time:  157.56s(wall), 155.86s(cpu)
        *  Thank you very much for using Q-Chem.  Have a nice day.  *
