 Q-Chem 5.4, Q-Chem, Inc., Pleasanton, CA (2021)
 Q-Chem 5.4.0 for Intel X86 EM64T Linux

User input:
--------------------------------------------------------------
$molecule
0 1
C	-0.285575	-0.512746	0.010277
C	0.079425	0.269954	1.109677
C	0.664325	1.524154	0.786977
H	-0.076475	-0.064346	2.146377
C	0.757625	1.724154	-0.602223
S	0.112725	0.341354	-1.476523
C	1.124025	2.509954	1.824877
H	0.944125	2.124254	2.846977
H	0.591725	3.480154	1.736477
H	2.209325	2.725854	1.736477
C	-0.285575	-1.953446	0.010277
H	-0.655075	-1.953146	1.025077
H	-1.055375	-2.657246	-0.269923
H	0.604425	-2.472346	0.334177
H	1.158725	2.584454	-1.151323
$end

$rem
JOBTYPE		SP
EXCHANGE	HF
CORRELATION	pRIMP2
BASIS		cc-pvtz
METHOD		rimp2
AUX_BASIS	rimp2-cc-pvtz
SOLVENT_METHOD	PCM
PURECART	11111
SYMMETRY	false
MEM_TOTAL	110000
SCF_CONVERGENCE = 6
THRESH=10
$end

$solvent
dielectric 4.90
$end
--------------------------------------------------------------

             Standard Nuclear Orientation (Angstroms)
    I     Atom           X                Y                Z
 ----------------------------------------------------------------
    1      C      -0.2855750000    -0.5127460000     0.0102770000
    2      C       0.0794250000     0.2699540000     1.1096770000
    3      C       0.6643250000     1.5241540000     0.7869770000
    4      H      -0.0764750000    -0.0643460000     2.1463770000
    5      C       0.7576250000     1.7241540000    -0.6022230000
    6      S       0.1127250000     0.3413540000    -1.4765230000
    7      C       1.1240250000     2.5099540000     1.8248770000
    8      H       0.9441250000     2.1242540000     2.8469770000
    9      H       0.5917250000     3.4801540000     1.7364770000
   10      H       2.2093250000     2.7258540000     1.7364770000
   11      C      -0.2855750000    -1.9534460000     0.0102770000
   12      H      -0.6550750000    -1.9531460000     1.0250770000
   13      H      -1.0553750000    -2.6572460000    -0.2699230000
   14      H       0.6044250000    -2.4723460000     0.3341770000
   15      H       1.1587250000     2.5844540000    -1.1513230000
 ----------------------------------------------------------------

   10    -629.4135291328      5.08e-07  Convergence criterion met
 Total energy in the final basis set =     -629.4135291328
        RIMP2         total energy =      -630.5941307620 a.u.

                    Orbital Energies (a.u.)
 --------------------------------------------------------------

 Alpha MOs
 -- Occupied --
-91.9737 -11.2733 -11.2604 -11.2475 -11.2366 -11.2277 -11.2152  -8.9741
 -6.6550  -6.6543  -6.6539  -1.1625  -1.0540  -0.9994  -0.9387  -0.8843
 -0.7428  -0.7248  -0.6469  -0.5916  -0.5785  -0.5660  -0.5589  -0.5422
 -0.5120  -0.4844  -0.4657  -0.4352  -0.3378  -0.3024

          Ground-State Mulliken Net Atomic Charges

     Atom                 Charge (a.u.)
  ----------------------------------------
      1 C                     0.031684
      2 C                    -0.268785
      3 C                     0.040223
      4 H                     0.177473
      5 C                    -0.247819
      6 S                    -0.004336
      7 C                    -0.270901
      8 H                     0.101302
      9 H                     0.106950
     10 H                     0.106983
     11 C                    -0.364886
     12 H                     0.117089
     13 H                     0.148972
     14 H                     0.132902
     15 H                     0.193148
  ----------------------------------------
  Sum of atomic charges =     0.000000

                    Cartesian Multipole Moments
 -----------------------------------------------------------------
    Charge (ESU x 10^10)
                -0.0000
    Dipole Moment (Debye)
         X       0.4959      Y      -0.0263      Z       2.1577
       Tot       2.2141
    Quadrupole Moments (Debye-Ang)
        XX     -52.1744     XY       4.0334     YY     -43.9387
        XZ       0.1240     YZ      -0.9794     ZZ     -48.8394

 Total job time:  157.65s(wall), 155.97s(cpu)
        *  Thank you very much for using Q-Chem.  Have a nice day.  *
