 Q-Chem 5.4, Q-Chem, Inc., Pleasanton, CA (2021)
 Q-Chem 5.4.0 for Intel X86 EM64T Linux

User input:
--------------------------------------------------------------
$molecule
0 1
C	-0.434921	-0.417597	0.010277
C	0.120179	0.243903	1.109677
C	1.009779	1.304103	0.786977
H	-0.116821	-0.038597	2.146377
C	1.151679	1.473103	-0.602223
S	0.170879	0.304303	-1.476523
C	1.708979	2.137303	1.824877
H	1.435379	1.811303	2.846977
H	1.445979	3.212103	1.736477
H	2.813179	2.064903	1.736477
C	-0.434921	-1.858297	0.010277
H	-0.804421	-1.857997	1.025077
H	-1.204721	-2.562097	-0.269923
H	0.455079	-2.377197	0.334177
H	1.761779	2.200203	-1.151323
$end

$rem
JOBTYPE		SP
EXCHANGE	HF
CORRELATION	pRIMP2
BASIS		cc-pvtz
METHOD		rimp2
AUX_BASIS	rimp2-cc-pvtz
SOLVENT_METHOD	PCM
PURECART	11111
SYMMETRY	false
MEM_TOTAL	110000
SCF_CONVERGENCE = 6
THRESH=10
$end

$solvent
dielectric 4.90
$end
--------------------------------------------------------------

             Standard Nuclear Orientation (Angstroms)
    I     Atom           X                Y                Z
 ----------------------------------------------------------------
    1      C      -0.4349210000    -0.4175970000     0.0102770000
    2      C       0.1201790000     0.2439030000     1.1096770000
    3      C       1.0097790000     1.3041030000     0.7869770000
    4      H      -0.1168210000    -0.0385970000     2.1463770000
    5      C       1.1516790000     1.4731030000    -0.6022230000
    6      S       0.1708790000     0.3043030000    -1.4765230000
    7      C       1.7089790000     2.1373030000     1.8248770000
    8      H       1.4353790000     1.8113030000     2.8469770000
    9      H       1.4459790000     3.2121030000     1.7364770000
   10      H       2.8131790000     2.0649030000     1.7364770000
   11      C      -0.4349210000    -1.8582970000     0.0102770000
   12      H      -0.8044210000    -1.8579970000     1.0250770000
   13      H      -1.2047210000    -2.5620970000    -0.2699230000
   14      H       0.4550790000    -2.3771970000     0.3341770000
   15      H       1.7617790000     2.2002030000    -1.1513230000
 ----------------------------------------------------------------

   10    -629.3942317728      5.44e-07  Convergence criterion met
 Total energy in the final basis set =     -629.3942317728
        RIMP2         total energy =      -630.5789807824 a.u.

                    Orbital Energies (a.u.)
 --------------------------------------------------------------

 Alpha MOs
 -- Occupied --
-91.9725 -11.2676 -11.2642 -11.2483 -11.2421 -11.2283 -11.2125  -8.9732
 -6.6540  -6.6533  -6.6529  -1.1658  -1.0543  -0.9996  -0.9371  -0.8841
 -0.7441  -0.7275  -0.6449  -0.5912  -0.5807  -0.5664  -0.5571  -0.5424
 -0.5147  -0.4805  -0.4642  -0.4295  -0.3372  -0.3031

          Ground-State Mulliken Net Atomic Charges

     Atom                 Charge (a.u.)
  ----------------------------------------
      1 C                    -0.011091
      2 C                    -0.229187
      3 C                     0.026553
      4 H                     0.178006
      5 C                    -0.228347
      6 S                     0.000209
      7 C                    -0.268807
      8 H                     0.101399
      9 H                     0.107000
     10 H                     0.106321
     11 C                    -0.361416
     12 H                     0.110889
     13 H                     0.139239
     14 H                     0.134963
     15 H                     0.194269
  ----------------------------------------
  Sum of atomic charges =     0.000000

                    Cartesian Multipole Moments
 -----------------------------------------------------------------
    Charge (ESU x 10^10)
                -0.0000
    Dipole Moment (Debye)
         X       1.1191      Y       0.1389      Z       2.2047
       Tot       2.4763
    Quadrupole Moments (Debye-Ang)
        XX     -50.2409     XY       5.0649     YY     -46.3911
        XZ      -0.0074     YZ      -0.9598     ZZ     -48.6408

 Total job time:  157.47s(wall), 156.10s(cpu)
        *  Thank you very much for using Q-Chem.  Have a nice day.  *
