 Q-Chem 5.4, Q-Chem, Inc., Pleasanton, CA (2021)
 Q-Chem 5.4.0 for Intel X86 EM64T Linux

User input:
--------------------------------------------------------------
$molecule
0 1
C	-0.004508	-0.576309	0.016960
C	-0.004508	0.287291	1.116360
C	-0.004408	1.671191	0.793660
H	-0.004508	-0.081509	2.153060
C	-0.004408	1.891891	-0.595540
S	-0.004508	0.366091	-1.469840
C	-0.004408	2.758991	1.831560
H	-0.004408	2.333291	2.853660
H	-0.896808	3.413291	1.743160
H	0.887992	3.413191	1.743160
C	-0.004508	-2.017009	0.016960
H	0.930892	-2.017209	-0.522940
H	-0.414008	-2.720809	-0.692540
H	0.469092	-2.535909	0.837160
H	-0.004408	2.841091	-1.144640
$end

$rem
JOBTYPE		SP
EXCHANGE	HF
CORRELATION	pRIMP2
BASIS		cc-pvtz
METHOD		rimp2
AUX_BASIS	rimp2-cc-pvtz
SOLVENT_METHOD	PCM
PURECART	11111
SYMMETRY	false
MEM_TOTAL	110000
SCF_CONVERGENCE = 6
THRESH=10
$end

$solvent
dielectric 4.90
$end
--------------------------------------------------------------

   10    -629.4243433253      6.57e-07  Convergence criterion met
 Total energy in the final basis set =     -629.4243433253
        RIMP2         total energy =      -630.5998876328 a.u.
 Total job time:  159.80s(wall), 157.24s(cpu)
        *  Thank you very much for using Q-Chem.  Have a nice day.  *
 Q-Chem 5.4, Q-Chem, Inc., Pleasanton, CA (2021)
 Q-Chem 5.4.0 for Intel X86 EM64T Linux

User input:
--------------------------------------------------------------
$molecule
0 1
C	-0.004508	-0.576309	0.016960
C	-0.004508	0.287291	1.116360
C	-0.004408	1.671191	0.793660
H	-0.004508	-0.081509	2.153060
C	-0.004408	1.891891	-0.595540
S	-0.004508	0.366091	-1.469840
C	-0.004408	2.758991	1.831560
H	-0.004408	2.333291	2.853660
H	-0.896808	3.413291	1.743160
H	0.887992	3.413191	1.743160
C	-0.004508	-2.017009	0.016960
H	0.930892	-2.017209	-0.522940
H	-0.414008	-2.720809	-0.692540
H	0.469092	-2.535909	0.837160
H	-0.004408	2.841091	-1.144640
$end

$rem
JOBTYPE		SP
EXCHANGE	HF
CORRELATION	pRIMP2
BASIS		cc-pvtz
METHOD		rimp2
AUX_BASIS	rimp2-cc-pvtz
SOLVENT_METHOD	PCM
PURECART	11111
SYMMETRY	false
MEM_TOTAL	110000
SCF_CONVERGENCE = 6
THRESH=10
$end

$solvent
dielectric 4.90
$end
--------------------------------------------------------------

             Standard Nuclear Orientation (Angstroms)
    I     Atom           X                Y                Z
 ----------------------------------------------------------------
    1      C      -0.0045080000    -0.5763090000     0.0169600000
    2      C      -0.0045080000     0.2872910000     1.1163600000
    3      C      -0.0044080000     1.6711910000     0.7936600000
    4      H      -0.0045080000    -0.0815090000     2.1530600000
    5      C      -0.0044080000     1.8918910000    -0.5955400000
    6      S      -0.0045080000     0.3660910000    -1.4698400000
    7      C      -0.0044080000     2.7589910000     1.8315600000
    8      H      -0.0044080000     2.3332910000     2.8536600000
    9      H      -0.8968080000     3.4132910000     1.7431600000
   10      H       0.8879920000     3.4131910000     1.7431600000
   11      C      -0.0045080000    -2.0170090000     0.0169600000
   12      H       0.9308920000    -2.0172090000    -0.5229400000
   13      H      -0.4140080000    -2.7208090000    -0.6925400000
   14      H       0.4690920000    -2.5359090000     0.8371600000
   15      H      -0.0044080000     2.8410910000    -1.1446400000
 ----------------------------------------------------------------

   10    -629.4243433253      6.57e-07  Convergence criterion met
 Total energy in the final basis set =     -629.4243433253
        RIMP2         total energy =      -630.5998876328 a.u.

                    Orbital Energies (a.u.)
 --------------------------------------------------------------

 Alpha MOs
 -- Occupied --
-91.9777 -11.2832 -11.2515 -11.2468 -11.2265 -11.2254 -11.2206  -8.9777
 -6.6587  -6.6582  -6.6575  -1.1604  -1.0560  -0.9965  -0.9439  -0.8823
 -0.7454  -0.7184  -0.6477  -0.5905  -0.5759  -0.5685  -0.5502  -0.5476
 -0.5080  -0.4916  -0.4654  -0.4542  -0.3391  -0.2920

          Ground-State Mulliken Net Atomic Charges

     Atom                 Charge (a.u.)
  ----------------------------------------
      1 C                     0.055239
      2 C                    -0.287480
      3 C                     0.041539
      4 H                     0.181169
      5 C                    -0.267910
      6 S                    -0.008631
      7 C                    -0.273854
      8 H                     0.101326
      9 H                     0.107292
     10 H                     0.107237
     11 C                    -0.374428
     12 H                     0.131889
     13 H                     0.154782
     14 H                     0.138278
     15 H                     0.193553
  ----------------------------------------
  Sum of atomic charges =     0.000000

                    Cartesian Multipole Moments
 -----------------------------------------------------------------
    Charge (ESU x 10^10)
                -0.0000
    Dipole Moment (Debye)
         X       0.6217      Y      -0.5319      Z       1.0974
       Tot       1.3688
    Quadrupole Moments (Debye-Ang)
        XX     -54.2527     XY      -1.2697     YY     -41.7599
        XZ       0.2851     YZ       1.1489     ZZ     -48.6703

 Total job time:  157.31s(wall), 155.27s(cpu)
        *  Thank you very much for using Q-Chem.  Have a nice day.  *
