 Q-Chem 5.4, Q-Chem, Inc., Pleasanton, CA (2021)
 Q-Chem 5.4.0 for Intel X86 EM64T Linux

User input:
--------------------------------------------------------------
$molecule
0 1
C	-0.232289	-0.535397	0.019910
C	0.063111	0.276103	1.119310
C	0.536411	1.576503	0.796610
H	-0.062989	-0.070397	2.156010
C	0.611911	1.783903	-0.592590
S	0.090011	0.350203	-1.466890
C	0.908511	2.598703	1.834510
H	0.762911	2.198703	2.856610
H	0.293711	3.518703	1.746110
H	1.970911	2.908303	1.746110
C	-0.232289	-1.976097	0.019910
H	-0.044589	-1.975797	-1.043690
H	0.574411	-2.679897	0.162210
H	-1.164989	-2.494997	-0.144590
H	0.936611	2.675903	-1.141690
$end

$rem
JOBTYPE		SP
EXCHANGE	HF
CORRELATION	pRIMP2
BASIS		cc-pvtz
METHOD		rimp2
AUX_BASIS	rimp2-cc-pvtz
SOLVENT_METHOD	PCM
PURECART	11111
SYMMETRY	false
MEM_TOTAL	110000
SCF_CONVERGENCE = 6
THRESH=10
$end

$solvent
dielectric 4.90
$end
--------------------------------------------------------------

             Standard Nuclear Orientation (Angstroms)
    I     Atom           X                Y                Z
 ----------------------------------------------------------------
    1      C      -0.2322890000    -0.5353970000     0.0199100000
    2      C       0.0631110000     0.2761030000     1.1193100000
    3      C       0.5364110000     1.5765030000     0.7966100000
    4      H      -0.0629890000    -0.0703970000     2.1560100000
    5      C       0.6119110000     1.7839030000    -0.5925900000
    6      S       0.0900110000     0.3502030000    -1.4668900000
    7      C       0.9085110000     2.5987030000     1.8345100000
    8      H       0.7629110000     2.1987030000     2.8566100000
    9      H       0.2937110000     3.5187030000     1.7461100000
   10      H       1.9709110000     2.9083030000     1.7461100000
   11      C      -0.2322890000    -1.9760970000     0.0199100000
   12      H      -0.0445890000    -1.9757970000    -1.0436900000
   13      H       0.5744110000    -2.6798970000     0.1622100000
   14      H      -1.1649890000    -2.4949970000    -0.1445900000
   15      H       0.9366110000     2.6759030000    -1.1416900000
 ----------------------------------------------------------------

   10    -629.4113047766      5.45e-07  Convergence criterion met
 Total energy in the final basis set =     -629.4113047766
        RIMP2         total energy =      -630.5910264428 a.u.

                    Orbital Energies (a.u.)
 --------------------------------------------------------------

 Alpha MOs
 -- Occupied --
-91.9793 -11.2714 -11.2603 -11.2471 -11.2317 -11.2270 -11.2142  -8.9794
 -6.6603  -6.6597  -6.6591  -1.1622  -1.0551  -0.9949  -0.9462  -0.8812
 -0.7486  -0.7195  -0.6478  -0.5896  -0.5764  -0.5666  -0.5529  -0.5475
 -0.5112  -0.4813  -0.4647  -0.4432  -0.3379  -0.3035

          Ground-State Mulliken Net Atomic Charges

     Atom                 Charge (a.u.)
  ----------------------------------------
      1 C                     0.035038
      2 C                    -0.266303
      3 C                     0.045638
      4 H                     0.179776
      5 C                    -0.254432
      6 S                    -0.003816
      7 C                    -0.272405
      8 H                     0.101957
      9 H                     0.106954
     10 H                     0.106506
     11 C                    -0.361938
     12 H                     0.115963
     13 H                     0.147826
     14 H                     0.123653
     15 H                     0.195583
  ----------------------------------------
  Sum of atomic charges =     0.000000

                    Cartesian Multipole Moments
 -----------------------------------------------------------------
    Charge (ESU x 10^10)
                -0.0000
    Dipole Moment (Debye)
         X       0.6764      Y       0.1078      Z       0.8901
       Tot       1.1231
    Quadrupole Moments (Debye-Ang)
        XX     -52.8131     XY       2.4852     YY     -43.4391
        XZ       0.2486     YZ       1.3978     ZZ     -48.7298

 Total job time:  156.88s(wall), 155.17s(cpu)
        *  Thank you very much for using Q-Chem.  Have a nice day.  *
