 Q-Chem 5.4, Q-Chem, Inc., Pleasanton, CA (2021)
 Q-Chem 5.4.0 for Intel X86 EM64T Linux

User input:
--------------------------------------------------------------
$molecule
0 1
C	-0.171086	-0.553191	0.016960
C	0.052414	0.281009	1.116360
C	0.410614	1.617709	0.793660
H	-0.042986	-0.075291	2.153060
C	0.467814	1.830809	-0.595540
S	0.072814	0.357109	-1.469840
C	0.692214	2.668409	1.831560
H	0.582014	2.257309	2.853660
H	-0.000386	3.531409	1.743160
H	1.723514	3.069409	1.743160
C	-0.171086	-1.993891	0.016960
H	-1.106286	-1.993591	-0.523140
H	0.238514	-2.697691	-0.692440
H	-0.644686	-2.512791	0.837160
H	0.713514	2.747709	-1.144640
$end

$rem
JOBTYPE		SP
EXCHANGE	HF
CORRELATION	pRIMP2
BASIS		cc-pvtz
METHOD		rimp2
AUX_BASIS	rimp2-cc-pvtz
SOLVENT_METHOD	PCM
PURECART	11111
SYMMETRY	false
MEM_TOTAL	110000
SCF_CONVERGENCE = 6
THRESH=10
$end

$solvent
dielectric 4.90
$end
--------------------------------------------------------------

             Standard Nuclear Orientation (Angstroms)
    I     Atom           X                Y                Z
 ----------------------------------------------------------------
    1      C      -0.1710860000    -0.5531910000     0.0169600000
    2      C       0.0524140000     0.2810090000     1.1163600000
    3      C       0.4106140000     1.6177090000     0.7936600000
    4      H      -0.0429860000    -0.0752910000     2.1530600000
    5      C       0.4678140000     1.8308090000    -0.5955400000
    6      S       0.0728140000     0.3571090000    -1.4698400000
    7      C       0.6922140000     2.6684090000     1.8315600000
    8      H       0.5820140000     2.2573090000     2.8536600000
    9      H      -0.0003860000     3.5314090000     1.7431600000
   10      H       1.7235140000     3.0694090000     1.7431600000
   11      C      -0.1710860000    -1.9938910000     0.0169600000
   12      H      -1.1062860000    -1.9935910000    -0.5231400000
   13      H       0.2385140000    -2.6976910000    -0.6924400000
   14      H      -0.6446860000    -2.5127910000     0.8371600000
   15      H       0.7135140000     2.7477090000    -1.1446400000
 ----------------------------------------------------------------

   10    -629.4171915714      6.02e-07  Convergence criterion met
 Total energy in the final basis set =     -629.4171915714
        RIMP2         total energy =      -630.5946004195 a.u.

                    Orbital Energies (a.u.)
 --------------------------------------------------------------

 Alpha MOs
 -- Occupied --
-91.9780 -11.2799 -11.2536 -11.2470 -11.2269 -11.2266 -11.2185  -8.9780
 -6.6590  -6.6584  -6.6578  -1.1606  -1.0553  -0.9964  -0.9439  -0.8824
 -0.7456  -0.7189  -0.6468  -0.5896  -0.5748  -0.5704  -0.5502  -0.5468
 -0.5098  -0.4891  -0.4624  -0.4542  -0.3386  -0.2918

          Ground-State Mulliken Net Atomic Charges

     Atom                 Charge (a.u.)
  ----------------------------------------
      1 C                     0.025584
      2 C                    -0.261222
      3 C                     0.033969
      4 H                     0.181460
      5 C                    -0.259889
      6 S                    -0.009118
      7 C                    -0.273302
      8 H                     0.101321
      9 H                     0.107013
     10 H                     0.107009
     11 C                    -0.369167
     12 H                     0.128859
     13 H                     0.156676
     14 H                     0.136749
     15 H                     0.194058
  ----------------------------------------
  Sum of atomic charges =     0.000000

                    Cartesian Multipole Moments
 -----------------------------------------------------------------
    Charge (ESU x 10^10)
                -0.0000
    Dipole Moment (Debye)
         X      -0.2663      Y      -0.4001      Z       1.1245
       Tot       1.2229
    Quadrupole Moments (Debye-Ang)
        XX     -53.5103     XY       3.4716     YY     -42.5131
        XZ      -0.1885     YZ       1.0562     ZZ     -48.5984

 Total job time:  157.11s(wall), 154.36s(cpu)
        *  Thank you very much for using Q-Chem.  Have a nice day.  *
