 Q-Chem 5.4, Q-Chem, Inc., Pleasanton, CA (2021)
 Q-Chem 5.4.0 for Intel X86 EM64T Linux

User input:
--------------------------------------------------------------
$molecule
0 1
C	-0.004774	-0.576309	0.016151
C	-0.004774	0.287291	1.115551
C	-0.004674	1.671191	0.792851
H	-0.004774	-0.081509	2.152251
C	-0.004674	1.891891	-0.596349
S	-0.004774	0.366091	-1.470649
C	-0.004674	2.758991	1.830751
H	-0.004674	2.333291	2.852851
H	-0.897074	3.413291	1.742351
H	0.887726	3.413191	1.742351
C	-0.004774	-2.017009	0.016151
H	1.010126	-2.017209	-0.353149
H	-0.284874	-2.720809	-0.753649
H	0.319126	-2.535909	0.906151
H	-0.004674	2.841091	-1.145449
$end

$rem
JOBTYPE		SP
EXCHANGE	HF
CORRELATION	pRIMP2
BASIS		cc-pvtz
METHOD		rimp2
AUX_BASIS	rimp2-cc-pvtz
SOLVENT_METHOD	PCM
PURECART	11111
SYMMETRY	false
MEM_TOTAL	110000
SCF_CONVERGENCE = 6
THRESH=10
$end

$solvent
dielectric 4.90
$end
--------------------------------------------------------------

   10    -629.4248921770      6.81e-07  Convergence criterion met
 Total energy in the final basis set =     -629.4248921770
        RIMP2         total energy =      -630.6000778784 a.u.
 Total job time:  162.81s(wall), 160.16s(cpu)
        *  Thank you very much for using Q-Chem.  Have a nice day.  *
 Q-Chem 5.4, Q-Chem, Inc., Pleasanton, CA (2021)
 Q-Chem 5.4.0 for Intel X86 EM64T Linux

User input:
--------------------------------------------------------------
$molecule
0 1
C	-0.004774	-0.576309	0.016151
C	-0.004774	0.287291	1.115551
C	-0.004674	1.671191	0.792851
H	-0.004774	-0.081509	2.152251
C	-0.004674	1.891891	-0.596349
S	-0.004774	0.366091	-1.470649
C	-0.004674	2.758991	1.830751
H	-0.004674	2.333291	2.852851
H	-0.897074	3.413291	1.742351
H	0.887726	3.413191	1.742351
C	-0.004774	-2.017009	0.016151
H	1.010126	-2.017209	-0.353149
H	-0.284874	-2.720809	-0.753649
H	0.319126	-2.535909	0.906151
H	-0.004674	2.841091	-1.145449
$end

$rem
JOBTYPE		SP
EXCHANGE	HF
CORRELATION	pRIMP2
BASIS		cc-pvtz
METHOD		rimp2
AUX_BASIS	rimp2-cc-pvtz
SOLVENT_METHOD	PCM
PURECART	11111
SYMMETRY	false
MEM_TOTAL	110000
SCF_CONVERGENCE = 6
THRESH=10
$end

$solvent
dielectric 4.90
$end
--------------------------------------------------------------

             Standard Nuclear Orientation (Angstroms)
    I     Atom           X                Y                Z
 ----------------------------------------------------------------
    1      C      -0.0047740000    -0.5763090000     0.0161510000
    2      C      -0.0047740000     0.2872910000     1.1155510000
    3      C      -0.0046740000     1.6711910000     0.7928510000
    4      H      -0.0047740000    -0.0815090000     2.1522510000
    5      C      -0.0046740000     1.8918910000    -0.5963490000
    6      S      -0.0047740000     0.3660910000    -1.4706490000
    7      C      -0.0046740000     2.7589910000     1.8307510000
    8      H      -0.0046740000     2.3332910000     2.8528510000
    9      H      -0.8970740000     3.4132910000     1.7423510000
   10      H       0.8877260000     3.4131910000     1.7423510000
   11      C      -0.0047740000    -2.0170090000     0.0161510000
   12      H       1.0101260000    -2.0172090000    -0.3531490000
   13      H      -0.2848740000    -2.7208090000    -0.7536490000
   14      H       0.3191260000    -2.5359090000     0.9061510000
   15      H      -0.0046740000     2.8410910000    -1.1454490000
 ----------------------------------------------------------------

   10    -629.4248921770      6.81e-07  Convergence criterion met
 Total energy in the final basis set =     -629.4248921770
        RIMP2         total energy =      -630.6000778784 a.u.

                    Orbital Energies (a.u.)
 --------------------------------------------------------------

 Alpha MOs
 -- Occupied --
-91.9776 -11.2849 -11.2501 -11.2468 -11.2264 -11.2244 -11.2217  -8.9775
 -6.6585  -6.6580  -6.6573  -1.1603  -1.0562  -0.9968  -0.9432  -0.8824
 -0.7448  -0.7184  -0.6477  -0.5901  -0.5759  -0.5691  -0.5504  -0.5472
 -0.5078  -0.4928  -0.4656  -0.4555  -0.3390  -0.2901

          Ground-State Mulliken Net Atomic Charges

     Atom                 Charge (a.u.)
  ----------------------------------------
      1 C                     0.058418
      2 C                    -0.295883
      3 C                     0.044446
      4 H                     0.180090
      5 C                    -0.273033
      6 S                    -0.007866
      7 C                    -0.274124
      8 H                     0.101286
      9 H                     0.107294
     10 H                     0.107341
     11 C                    -0.377478
     12 H                     0.137629
     13 H                     0.158922
     14 H                     0.139706
     15 H                     0.193252
  ----------------------------------------
  Sum of atomic charges =     0.000000

                    Cartesian Multipole Moments
 -----------------------------------------------------------------
    Charge (ESU x 10^10)
                -0.0000
    Dipole Moment (Debye)
         X       0.6865      Y      -0.6557      Z       1.1855
       Tot       1.5188
    Quadrupole Moments (Debye-Ang)
        XX     -54.3466     XY      -1.4095     YY     -41.6793
        XZ       0.2183     YZ       0.9674     ZZ     -48.6419

 Total job time:  156.64s(wall), 155.21s(cpu)
        *  Thank you very much for using Q-Chem.  Have a nice day.  *
