 Q-Chem 5.4, Q-Chem, Inc., Pleasanton, CA (2021)
 Q-Chem 5.4.0 for Intel X86 EM64T Linux

User input:
--------------------------------------------------------------
$molecule
0 1
C	-0.584123	-0.237127	0.018592
C	0.163777	0.194673	1.117992
C	1.362277	0.886573	0.795292
H	-0.155623	0.010273	2.154692
C	1.553377	0.996873	-0.593908
S	0.232077	0.234073	-1.468208
C	2.304377	1.430473	1.833192
H	1.935677	1.217573	2.855292
H	2.424777	2.530373	1.744792
H	3.317177	0.984673	1.744792
C	-0.584123	-1.677827	0.018592
H	-1.411423	-1.678027	-0.675708
H	-1.110723	-2.381627	0.646092
H	0.024677	-2.196727	-0.707008
H	2.375477	1.471473	-1.143008
$end

$rem
JOBTYPE		SP
EXCHANGE	HF
CORRELATION	pRIMP2
BASIS		cc-pvtz
METHOD		rimp2
AUX_BASIS	rimp2-cc-pvtz
SOLVENT_METHOD	PCM
PURECART	11111
SYMMETRY	false
MEM_TOTAL	110000
SCF_CONVERGENCE = 6
THRESH=10
$end

$solvent
dielectric 4.90
$end
--------------------------------------------------------------

             Standard Nuclear Orientation (Angstroms)
    I     Atom           X                Y                Z
 ----------------------------------------------------------------
    1      C      -0.5841230000    -0.2371270000     0.0185920000
    2      C       0.1637770000     0.1946730000     1.1179920000
    3      C       1.3622770000     0.8865730000     0.7952920000
    4      H      -0.1556230000     0.0102730000     2.1546920000
    5      C       1.5533770000     0.9968730000    -0.5939080000
    6      S       0.2320770000     0.2340730000    -1.4682080000
    7      C       2.3043770000     1.4304730000     1.8331920000
    8      H       1.9356770000     1.2175730000     2.8552920000
    9      H       2.4247770000     2.5303730000     1.7447920000
   10      H       3.3171770000     0.9846730000     1.7447920000
   11      C      -0.5841230000    -1.6778270000     0.0185920000
   12      H      -1.4114230000    -1.6780270000    -0.6757080000
   13      H      -1.1107230000    -2.3816270000     0.6460920000
   14      H       0.0246770000    -2.1967270000    -0.7070080000
   15      H       2.3754770000     1.4714730000    -1.1430080000
 ----------------------------------------------------------------

   11    -629.3415619899      5.68e-07  Convergence criterion met
 Total energy in the final basis set =     -629.3415619899
        RIMP2         total energy =      -630.5322172651 a.u.

                    Orbital Energies (a.u.)
 --------------------------------------------------------------

 Alpha MOs
 -- Occupied --
-91.9757 -11.2835 -11.2514 -11.2486 -11.2401 -11.2285 -11.2056  -8.9766
 -6.6574  -6.6566  -6.6563  -1.1729  -1.0559  -0.9963  -0.9427  -0.8798
 -0.7537  -0.7289  -0.6418  -0.5928  -0.5780  -0.5686  -0.5518  -0.5444
 -0.5179  -0.4784  -0.4551  -0.4296  -0.3345  -0.2932

          Ground-State Mulliken Net Atomic Charges

     Atom                 Charge (a.u.)
  ----------------------------------------
      1 C                    -0.126355
      2 C                    -0.093788
      3 C                    -0.025875
      4 H                     0.185735
      5 C                    -0.176234
      6 S                     0.010630
      7 C                    -0.268841
      8 H                     0.101957
      9 H                     0.106496
     10 H                     0.103847
     11 C                    -0.391074
     12 H                     0.113074
     13 H                     0.137134
     14 H                     0.124074
     15 H                     0.199219
  ----------------------------------------
  Sum of atomic charges =     0.000000

                    Cartesian Multipole Moments
 -----------------------------------------------------------------
    Charge (ESU x 10^10)
                -0.0000
    Dipole Moment (Debye)
         X       2.1302      Y       0.2239      Z       1.4177
       Tot       2.5686
    Quadrupole Moments (Debye-Ang)
        XX     -47.7117     XY       5.2047     YY     -50.0786
        XZ      -0.6398     YZ       0.3983     ZZ     -47.6787

 Total job time:  175.16s(wall), 173.92s(cpu)
        *  Thank you very much for using Q-Chem.  Have a nice day.  *
