 Q-Chem 5.4, Q-Chem, Inc., Pleasanton, CA (2021)
 Q-Chem 5.4.0 for Intel X86 EM64T Linux

User input:
--------------------------------------------------------------
$molecule
0 1
C	-0.002218	-0.576309	0.019394
C	-0.002218	0.287291	1.118794
C	-0.002118	1.671191	0.796094
H	-0.002218	-0.081509	2.155494
C	-0.002118	1.891891	-0.593106
S	-0.002218	0.366091	-1.467406
C	-0.002118	2.758991	1.833994
H	-0.002118	2.333291	2.856094
H	-0.894518	3.413291	1.745594
H	0.890282	3.413191	1.745594
C	-0.002218	-2.017009	0.019394
H	0.367282	-2.017209	-0.995406
H	-0.772018	-2.720809	-0.260806
H	0.887782	-2.535909	0.343294
H	-0.002118	2.841091	-1.142206
$end

$rem
JOBTYPE		SP
EXCHANGE	HF
CORRELATION	pRIMP2
BASIS		cc-pvtz
METHOD		rimp2
AUX_BASIS	rimp2-cc-pvtz
SOLVENT_METHOD	PCM
PURECART	11111
SYMMETRY	false
MEM_TOTAL	110000
SCF_CONVERGENCE = 6
THRESH=10
$end

$solvent
dielectric 4.90
$end
--------------------------------------------------------------

   10    -629.4212415342      5.56e-07  Convergence criterion met
 Total energy in the final basis set =     -629.4212415342
        RIMP2         total energy =      -630.5987832456 a.u.
 Total job time:  159.24s(wall), 156.46s(cpu)
        *  Thank you very much for using Q-Chem.  Have a nice day.  *
 Q-Chem 5.4, Q-Chem, Inc., Pleasanton, CA (2021)
 Q-Chem 5.4.0 for Intel X86 EM64T Linux

User input:
--------------------------------------------------------------
$molecule
0 1
C	-0.002218	-0.576309	0.019394
C	-0.002218	0.287291	1.118794
C	-0.002118	1.671191	0.796094
H	-0.002218	-0.081509	2.155494
C	-0.002118	1.891891	-0.593106
S	-0.002218	0.366091	-1.467406
C	-0.002118	2.758991	1.833994
H	-0.002118	2.333291	2.856094
H	-0.894518	3.413291	1.745594
H	0.890282	3.413191	1.745594
C	-0.002218	-2.017009	0.019394
H	0.367282	-2.017209	-0.995406
H	-0.772018	-2.720809	-0.260806
H	0.887782	-2.535909	0.343294
H	-0.002118	2.841091	-1.142206
$end

$rem
JOBTYPE		SP
EXCHANGE	HF
CORRELATION	pRIMP2
BASIS		cc-pvtz
METHOD		rimp2
AUX_BASIS	rimp2-cc-pvtz
SOLVENT_METHOD	PCM
PURECART	11111
SYMMETRY	false
MEM_TOTAL	110000
SCF_CONVERGENCE = 6
THRESH=10
$end

$solvent
dielectric 4.90
$end
--------------------------------------------------------------

             Standard Nuclear Orientation (Angstroms)
    I     Atom           X                Y                Z
 ----------------------------------------------------------------
    1      C      -0.0022180000    -0.5763090000     0.0193940000
    2      C      -0.0022180000     0.2872910000     1.1187940000
    3      C      -0.0021180000     1.6711910000     0.7960940000
    4      H      -0.0022180000    -0.0815090000     2.1554940000
    5      C      -0.0021180000     1.8918910000    -0.5931060000
    6      S      -0.0022180000     0.3660910000    -1.4674060000
    7      C      -0.0021180000     2.7589910000     1.8339940000
    8      H      -0.0021180000     2.3332910000     2.8560940000
    9      H      -0.8945180000     3.4132910000     1.7455940000
   10      H       0.8902820000     3.4131910000     1.7455940000
   11      C      -0.0022180000    -2.0170090000     0.0193940000
   12      H       0.3672820000    -2.0172090000    -0.9954060000
   13      H      -0.7720180000    -2.7208090000    -0.2608060000
   14      H       0.8877820000    -2.5359090000     0.3432940000
   15      H      -0.0021180000     2.8410910000    -1.1422060000
 ----------------------------------------------------------------

   10    -629.4212415342      5.56e-07  Convergence criterion met
 Total energy in the final basis set =     -629.4212415342
        RIMP2         total energy =      -630.5987832456 a.u.

                    Orbital Energies (a.u.)
 --------------------------------------------------------------

 Alpha MOs
 -- Occupied --
-91.9800 -11.2761 -11.2570 -11.2471 -11.2289 -11.2268 -11.2165  -8.9799
 -6.6608  -6.6603  -6.6597  -1.1608  -1.0552  -0.9955  -0.9461  -0.8818
 -0.7476  -0.7186  -0.6480  -0.5915  -0.5755  -0.5666  -0.5527  -0.5474
 -0.5088  -0.4866  -0.4649  -0.4458  -0.3385  -0.3021

          Ground-State Mulliken Net Atomic Charges

     Atom                 Charge (a.u.)
  ----------------------------------------
      1 C                     0.055870
      2 C                    -0.264310
      3 C                     0.038301
      4 H                     0.180356
      5 C                    -0.259400
      6 S                    -0.002295
      7 C                    -0.273309
      8 H                     0.101811
      9 H                     0.106974
     10 H                     0.106903
     11 C                    -0.370898
     12 H                     0.113578
     13 H                     0.140125
     14 H                     0.131371
     15 H                     0.194922
  ----------------------------------------
  Sum of atomic charges =     0.000000

                    Cartesian Multipole Moments
 -----------------------------------------------------------------
    Charge (ESU x 10^10)
                -0.0000
    Dipole Moment (Debye)
         X       0.2389      Y      -0.0318      Z       0.8812
       Tot       0.9136
    Quadrupole Moments (Debye-Ang)
        XX     -53.7771     XY      -0.4210     YY     -42.1375
        XZ       0.2199     YZ       1.4949     ZZ     -48.8053

 Total job time:  156.27s(wall), 154.66s(cpu)
        *  Thank you very much for using Q-Chem.  Have a nice day.  *
