 Q-Chem 5.4, Q-Chem, Inc., Pleasanton, CA (2021)
 Q-Chem 5.4.0 for Intel X86 EM64T Linux

User input:
--------------------------------------------------------------
$molecule
0 1
C	-0.582792	-0.237127	0.016441
C	0.165108	0.194673	1.115841
C	1.363608	0.886573	0.793141
H	-0.154292	0.010273	2.152541
C	1.554708	0.996873	-0.596059
S	0.233408	0.234073	-1.470359
C	2.305708	1.430473	1.831041
H	1.937008	1.217573	2.853141
H	2.426108	2.530373	1.742641
H	3.318508	0.984673	1.742641
C	-0.582792	-1.677827	0.016441
H	-1.646392	-1.678027	-0.171259
H	-0.725092	-2.381627	0.823141
H	-0.418292	-2.196727	-0.916259
H	2.376808	1.471473	-1.145159
$end

$rem
JOBTYPE		SP
EXCHANGE	HF
CORRELATION	pRIMP2
BASIS		cc-pvtz
METHOD		rimp2
AUX_BASIS	rimp2-cc-pvtz
SOLVENT_METHOD	PCM
PURECART	11111
SYMMETRY	false
MEM_TOTAL	110000
SCF_CONVERGENCE = 6
THRESH=10
$end

$solvent
dielectric 4.90
$end
--------------------------------------------------------------

             Standard Nuclear Orientation (Angstroms)
    I     Atom           X                Y                Z
 ----------------------------------------------------------------
    1      C      -0.5827920000    -0.2371270000     0.0164410000
    2      C       0.1651080000     0.1946730000     1.1158410000
    3      C       1.3636080000     0.8865730000     0.7931410000
    4      H      -0.1542920000     0.0102730000     2.1525410000
    5      C       1.5547080000     0.9968730000    -0.5960590000
    6      S       0.2334080000     0.2340730000    -1.4703590000
    7      C       2.3057080000     1.4304730000     1.8310410000
    8      H       1.9370080000     1.2175730000     2.8531410000
    9      H       2.4261080000     2.5303730000     1.7426410000
   10      H       3.3185080000     0.9846730000     1.7426410000
   11      C      -0.5827920000    -1.6778270000     0.0164410000
   12      H      -1.6463920000    -1.6780270000    -0.1712590000
   13      H      -0.7250920000    -2.3816270000     0.8231410000
   14      H      -0.4182920000    -2.1967270000    -0.9162590000
   15      H       2.3768080000     1.4714730000    -1.1451590000
 ----------------------------------------------------------------

   11    -629.3335651087      6.68e-07  Convergence criterion met
 Total energy in the final basis set =     -629.3335651087
        RIMP2         total energy =      -630.5262471929 a.u.

                    Orbital Energies (a.u.)
 --------------------------------------------------------------

 Alpha MOs
 -- Occupied --
-91.9730 -11.2803 -11.2509 -11.2480 -11.2412 -11.2283 -11.2034  -8.9740
 -6.6549  -6.6539  -6.6537  -1.1714  -1.0547  -0.9964  -0.9405  -0.8806
 -0.7513  -0.7290  -0.6420  -0.5885  -0.5759  -0.5674  -0.5524  -0.5425
 -0.5174  -0.4893  -0.4585  -0.4225  -0.3343  -0.2831

          Ground-State Mulliken Net Atomic Charges

     Atom                 Charge (a.u.)
  ----------------------------------------
      1 C                    -0.113895
      2 C                    -0.120692
      3 C                    -0.015068
      4 H                     0.185930
      5 C                    -0.187503
      6 S                     0.010855
      7 C                    -0.269296
      8 H                     0.101685
      9 H                     0.106426
     10 H                     0.103865
     11 C                    -0.398818
     12 H                     0.124573
     13 H                     0.144977
     14 H                     0.129449
     15 H                     0.197511
  ----------------------------------------
  Sum of atomic charges =     0.000000

                    Cartesian Multipole Moments
 -----------------------------------------------------------------
    Charge (ESU x 10^10)
                -0.0000
    Dipole Moment (Debye)
         X       1.8343      Y       0.0460      Z       1.6321
       Tot       2.4557
    Quadrupole Moments (Debye-Ang)
        XX     -47.9078     XY       5.2340     YY     -50.1324
        XZ      -0.4800     YZ       0.1047     ZZ     -47.4507

 Total job time:  175.41s(wall), 174.35s(cpu)
        *  Thank you very much for using Q-Chem.  Have a nice day.  *
