 Q-Chem 5.4, Q-Chem, Inc., Pleasanton, CA (2021)
 Q-Chem 5.4.0 for Intel X86 EM64T Linux

User input:
--------------------------------------------------------------
$molecule
0 1
C	-0.515154	-0.333974	0.016960
C	0.146446	0.221126	1.116360
C	1.206546	1.110626	0.793660
H	-0.136054	-0.015974	2.153060
C	1.375646	1.252426	-0.595540
S	0.206746	0.271726	-1.469840
C	2.039846	1.809826	1.831560
H	1.713746	1.536226	2.853660
H	1.967446	2.914026	1.743160
H	3.114646	1.546726	1.743160
C	-0.515154	-1.774674	0.016960
H	-1.450354	-1.774374	-0.523140
H	-0.105554	-2.478474	-0.692440
H	-0.988754	-2.293574	0.837160
H	2.102746	1.862626	-1.144640
$end

$rem
JOBTYPE		SP
EXCHANGE	HF
CORRELATION	pRIMP2
BASIS		cc-pvtz
METHOD		rimp2
AUX_BASIS	rimp2-cc-pvtz
SOLVENT_METHOD	PCM
PURECART	11111
SYMMETRY	false
MEM_TOTAL	110000
SCF_CONVERGENCE = 6
THRESH=10
$end

$solvent
dielectric 4.90
$end
--------------------------------------------------------------

             Standard Nuclear Orientation (Angstroms)
    I     Atom           X                Y                Z
 ----------------------------------------------------------------
    1      C      -0.5151540000    -0.3339740000     0.0169600000
    2      C       0.1464460000     0.2211260000     1.1163600000
    3      C       1.2065460000     1.1106260000     0.7936600000
    4      H      -0.1360540000    -0.0159740000     2.1530600000
    5      C       1.3756460000     1.2524260000    -0.5955400000
    6      S       0.2067460000     0.2717260000    -1.4698400000
    7      C       2.0398460000     1.8098260000     1.8315600000
    8      H       1.7137460000     1.5362260000     2.8536600000
    9      H       1.9674460000     2.9140260000     1.7431600000
   10      H       3.1146460000     1.5467260000     1.7431600000
   11      C      -0.5151540000    -1.7746740000     0.0169600000
   12      H      -1.4503540000    -1.7743740000    -0.5231400000
   13      H      -0.1055540000    -2.4784740000    -0.6924400000
   14      H      -0.9887540000    -2.2935740000     0.8371600000
   15      H       2.1027460000     1.8626260000    -1.1446400000
 ----------------------------------------------------------------

   11    -629.3632639303      4.48e-07  Convergence criterion met
 Total energy in the final basis set =     -629.3632639303
        RIMP2         total energy =      -630.5519564790 a.u.

                    Orbital Energies (a.u.)
 --------------------------------------------------------------

 Alpha MOs
 -- Occupied --
-91.9761 -11.2729 -11.2530 -11.2483 -11.2424 -11.2279 -11.2075  -8.9766
 -6.6575  -6.6568  -6.6564  -1.1674  -1.0540  -0.9960  -0.9420  -0.8816
 -0.7496  -0.7254  -0.6417  -0.5871  -0.5750  -0.5740  -0.5505  -0.5439
 -0.5167  -0.4835  -0.4555  -0.4361  -0.3364  -0.2899

          Ground-State Mulliken Net Atomic Charges

     Atom                 Charge (a.u.)
  ----------------------------------------
      1 C                    -0.075191
      2 C                    -0.165167
      3 C                     0.009883
      4 H                     0.183971
      5 C                    -0.209112
      6 S                     0.004257
      7 C                    -0.269535
      8 H                     0.101617
      9 H                     0.106653
     10 H                     0.104727
     11 C                    -0.386462
     12 H                     0.120410
     13 H                     0.153947
     14 H                     0.123363
     15 H                     0.196638
  ----------------------------------------
  Sum of atomic charges =     0.000000

                    Cartesian Multipole Moments
 -----------------------------------------------------------------
    Charge (ESU x 10^10)
                -0.0000
    Dipole Moment (Debye)
         X       1.3109      Y       0.1753      Z       1.3782
       Tot       1.9101
    Quadrupole Moments (Debye-Ang)
        XX     -49.0782     XY       5.5011     YY     -48.2554
        XZ      -0.3735     YZ       0.5799     ZZ     -47.9654

 Total job time:  171.06s(wall), 169.00s(cpu)
        *  Thank you very much for using Q-Chem.  Have a nice day.  *
