 Q-Chem 5.4, Q-Chem, Inc., Pleasanton, CA (2021)
 Q-Chem 5.4.0 for Intel X86 EM64T Linux

User input:
--------------------------------------------------------------
$molecule
0 1
C	-0.229089	-0.535397	0.018946
C	0.066311	0.276103	1.118346
C	0.539611	1.576503	0.795646
H	-0.059789	-0.070397	2.155046
C	0.615111	1.783903	-0.593554
S	0.093211	0.350203	-1.467854
C	0.911711	2.598703	1.833546
H	0.766111	2.198703	2.855646
H	0.296911	3.518703	1.745146
H	1.974111	2.908303	1.745146
C	-0.229089	-1.976097	0.018946
H	-0.768989	-1.975797	-0.916454
H	0.480411	-2.679897	-0.390554
H	-1.049289	-2.494997	0.492546
H	0.939811	2.675903	-1.142654
$end

$rem
JOBTYPE		SP
EXCHANGE	HF
CORRELATION	pRIMP2
BASIS		cc-pvtz
METHOD		rimp2
AUX_BASIS	rimp2-cc-pvtz
SOLVENT_METHOD	PCM
PURECART	11111
SYMMETRY	false
MEM_TOTAL	110000
SCF_CONVERGENCE = 6
THRESH=10
$end

$solvent
dielectric 4.90
$end
--------------------------------------------------------------

             Standard Nuclear Orientation (Angstroms)
    I     Atom           X                Y                Z
 ----------------------------------------------------------------
    1      C      -0.2290890000    -0.5353970000     0.0189460000
    2      C       0.0663110000     0.2761030000     1.1183460000
    3      C       0.5396110000     1.5765030000     0.7956460000
    4      H      -0.0597890000    -0.0703970000     2.1550460000
    5      C       0.6151110000     1.7839030000    -0.5935540000
    6      S       0.0932110000     0.3502030000    -1.4678540000
    7      C       0.9117110000     2.5987030000     1.8335460000
    8      H       0.7661110000     2.1987030000     2.8556460000
    9      H       0.2969110000     3.5187030000     1.7451460000
   10      H       1.9741110000     2.9083030000     1.7451460000
   11      C      -0.2290890000    -1.9760970000     0.0189460000
   12      H      -0.7689890000    -1.9757970000    -0.9164540000
   13      H       0.4804110000    -2.6798970000    -0.3905540000
   14      H      -1.0492890000    -2.4949970000     0.4925460000
   15      H       0.9398110000     2.6759030000    -1.1426540000
 ----------------------------------------------------------------

   10    -629.4125015666      5.26e-07  Convergence criterion met
 Total energy in the final basis set =     -629.4125015666
        RIMP2         total energy =      -630.5919962929 a.u.

                    Orbital Energies (a.u.)
 --------------------------------------------------------------

 Alpha MOs
 -- Occupied --
-91.9796 -11.2725 -11.2596 -11.2473 -11.2308 -11.2270 -11.2151  -8.9795
 -6.6604  -6.6599  -6.6593  -1.1616  -1.0546  -0.9956  -0.9455  -0.8819
 -0.7477  -0.7195  -0.6467  -0.5900  -0.5756  -0.5692  -0.5514  -0.5469
 -0.5113  -0.4814  -0.4638  -0.4471  -0.3382  -0.3002

          Ground-State Mulliken Net Atomic Charges

     Atom                 Charge (a.u.)
  ----------------------------------------
      1 C                     0.013327
      2 C                    -0.247362
      3 C                     0.033224
      4 H                     0.180220
      5 C                    -0.248750
      6 S                    -0.001474
      7 C                    -0.272359
      8 H                     0.101802
      9 H                     0.106833
     10 H                     0.106570
     11 C                    -0.359661
     12 H                     0.113579
     13 H                     0.145745
     14 H                     0.133722
     15 H                     0.194585
  ----------------------------------------
  Sum of atomic charges =     0.000000

                    Cartesian Multipole Moments
 -----------------------------------------------------------------
    Charge (ESU x 10^10)
                -0.0000
    Dipole Moment (Debye)
         X       0.2301      Y       0.0423      Z       0.9778
       Tot       1.0054
    Quadrupole Moments (Debye-Ang)
        XX     -52.7768     XY       3.5041     YY     -43.2922
        XZ      -0.1514     YZ       1.2762     ZZ     -48.6923

 Total job time:  158.63s(wall), 155.72s(cpu)
        *  Thank you very much for using Q-Chem.  Have a nice day.  *
