 Q-Chem 5.4, Q-Chem, Inc., Pleasanton, CA (2021)
 Q-Chem 5.4.0 for Intel X86 EM64T Linux

User input:
--------------------------------------------------------------
$molecule
0 1
C	0.004661	-0.576309	0.016441
C	0.004661	0.287291	1.115841
C	0.004761	1.671191	0.793141
H	0.004661	-0.081509	2.152541
C	0.004761	1.891891	-0.596059
S	0.004661	0.366091	-1.470359
C	0.004761	2.758991	1.831041
H	0.004761	2.333291	2.853141
H	-0.887639	3.413291	1.742641
H	0.897161	3.413191	1.742641
C	0.004661	-2.017009	0.016441
H	-1.058939	-2.017209	-0.171259
H	-0.137639	-2.720809	0.823141
H	0.169161	-2.535909	-0.916259
H	0.004761	2.841091	-1.145159
$end

$rem
JOBTYPE		SP
EXCHANGE	HF
CORRELATION	pRIMP2
BASIS		cc-pvtz
METHOD		rimp2
AUX_BASIS	rimp2-cc-pvtz
SOLVENT_METHOD	PCM
PURECART	11111
SYMMETRY	false
MEM_TOTAL	110000
SCF_CONVERGENCE = 6
THRESH=10
$end

$solvent
dielectric 4.90
$end
--------------------------------------------------------------

   10    -629.4244277430      7.10e-07  Convergence criterion met
 Total energy in the final basis set =     -629.4244277430
        RIMP2         total energy =      -630.5992638435 a.u.
 Total job time:  159.08s(wall), 155.90s(cpu)
        *  Thank you very much for using Q-Chem.  Have a nice day.  *
 Q-Chem 5.4, Q-Chem, Inc., Pleasanton, CA (2021)
 Q-Chem 5.4.0 for Intel X86 EM64T Linux

User input:
--------------------------------------------------------------
$molecule
0 1
C	0.004661	-0.576309	0.016441
C	0.004661	0.287291	1.115841
C	0.004761	1.671191	0.793141
H	0.004661	-0.081509	2.152541
C	0.004761	1.891891	-0.596059
S	0.004661	0.366091	-1.470359
C	0.004761	2.758991	1.831041
H	0.004761	2.333291	2.853141
H	-0.887639	3.413291	1.742641
H	0.897161	3.413191	1.742641
C	0.004661	-2.017009	0.016441
H	-1.058939	-2.017209	-0.171259
H	-0.137639	-2.720809	0.823141
H	0.169161	-2.535909	-0.916259
H	0.004761	2.841091	-1.145159
$end

$rem
JOBTYPE		SP
EXCHANGE	HF
CORRELATION	pRIMP2
BASIS		cc-pvtz
METHOD		rimp2
AUX_BASIS	rimp2-cc-pvtz
SOLVENT_METHOD	PCM
PURECART	11111
SYMMETRY	false
MEM_TOTAL	110000
SCF_CONVERGENCE = 6
THRESH=10
$end

$solvent
dielectric 4.90
$end
--------------------------------------------------------------

             Standard Nuclear Orientation (Angstroms)
    I     Atom           X                Y                Z
 ----------------------------------------------------------------
    1      C       0.0046610000    -0.5763090000     0.0164410000
    2      C       0.0046610000     0.2872910000     1.1158410000
    3      C       0.0047610000     1.6711910000     0.7931410000
    4      H       0.0046610000    -0.0815090000     2.1525410000
    5      C       0.0047610000     1.8918910000    -0.5960590000
    6      S       0.0046610000     0.3660910000    -1.4703590000
    7      C       0.0047610000     2.7589910000     1.8310410000
    8      H       0.0047610000     2.3332910000     2.8531410000
    9      H      -0.8876390000     3.4132910000     1.7426410000
   10      H       0.8971610000     3.4131910000     1.7426410000
   11      C       0.0046610000    -2.0170090000     0.0164410000
   12      H      -1.0589390000    -2.0172090000    -0.1712590000
   13      H      -0.1376390000    -2.7208090000     0.8231410000
   14      H       0.1691610000    -2.5359090000    -0.9162590000
   15      H       0.0047610000     2.8410910000    -1.1451590000
 ----------------------------------------------------------------

   10    -629.4244277430      7.10e-07  Convergence criterion met
 Total energy in the final basis set =     -629.4244277430
        RIMP2         total energy =      -630.5992638435 a.u.

                    Orbital Energies (a.u.)
 --------------------------------------------------------------

 Alpha MOs
 -- Occupied --
-91.9790 -11.2855 -11.2489 -11.2467 -11.2262 -11.2223 -11.2220  -8.9788
 -6.6598  -6.6593  -6.6586  -1.1602  -1.0564  -0.9967  -0.9431  -0.8823
 -0.7443  -0.7182  -0.6496  -0.5870  -0.5752  -0.5669  -0.5531  -0.5471
 -0.5072  -0.4946  -0.4659  -0.4570  -0.3389  -0.2886

          Ground-State Mulliken Net Atomic Charges

     Atom                 Charge (a.u.)
  ----------------------------------------
      1 C                     0.063110
      2 C                    -0.306973
      3 C                     0.049978
      4 H                     0.177171
      5 C                    -0.280466
      6 S                     0.000026
      7 C                    -0.274151
      8 H                     0.101382
      9 H                     0.107317
     10 H                     0.107228
     11 C                    -0.383273
     12 H                     0.141505
     13 H                     0.165548
     14 H                     0.138134
     15 H                     0.193464
  ----------------------------------------
  Sum of atomic charges =     0.000000

                    Cartesian Multipole Moments
 -----------------------------------------------------------------
    Charge (ESU x 10^10)
                -0.0000
    Dipole Moment (Debye)
         X      -0.7278      Y      -0.7362      Z       1.2556
       Tot       1.6273
    Quadrupole Moments (Debye-Ang)
        XX     -54.3975     XY       1.5514     YY     -41.6491
        XZ      -0.1494     YZ       0.4544     ZZ     -48.6005

 Total job time:  156.75s(wall), 155.26s(cpu)
        *  Thank you very much for using Q-Chem.  Have a nice day.  *
