 Q-Chem 5.4, Q-Chem, Inc., Pleasanton, CA (2021)
 Q-Chem 5.4.0 for Intel X86 EM64T Linux

User input:
--------------------------------------------------------------
$molecule
0 1
C	-0.516964	-0.333974	0.010946
C	0.144636	0.221126	1.110346
C	1.204736	1.110626	0.787646
H	-0.137864	-0.015974	2.147046
C	1.373836	1.252426	-0.601554
S	0.204936	0.271726	-1.475854
C	2.038036	1.809826	1.825546
H	1.711936	1.536226	2.847646
H	1.965636	2.914026	1.737146
H	3.112836	1.546726	1.737146
C	-0.516964	-1.774674	0.010946
H	-1.211264	-1.774374	0.838246
H	-1.144464	-2.478474	-0.515654
H	0.208636	-2.293574	0.619746
H	2.100936	1.862626	-1.150654
$end

$rem
JOBTYPE		SP
EXCHANGE	HF
CORRELATION	pRIMP2
BASIS		cc-pvtz
METHOD		rimp2
AUX_BASIS	rimp2-cc-pvtz
SOLVENT_METHOD	PCM
PURECART	11111
SYMMETRY	false
MEM_TOTAL	110000
SCF_CONVERGENCE = 6
THRESH=10
$end

$solvent
dielectric 4.90
$end
--------------------------------------------------------------

             Standard Nuclear Orientation (Angstroms)
    I     Atom           X                Y                Z
 ----------------------------------------------------------------
    1      C      -0.5169640000    -0.3339740000     0.0109460000
    2      C       0.1446360000     0.2211260000     1.1103460000
    3      C       1.2047360000     1.1106260000     0.7876460000
    4      H      -0.1378640000    -0.0159740000     2.1470460000
    5      C       1.3738360000     1.2524260000    -0.6015540000
    6      S       0.2049360000     0.2717260000    -1.4758540000
    7      C       2.0380360000     1.8098260000     1.8255460000
    8      H       1.7119360000     1.5362260000     2.8476460000
    9      H       1.9656360000     2.9140260000     1.7371460000
   10      H       3.1128360000     1.5467260000     1.7371460000
   11      C      -0.5169640000    -1.7746740000     0.0109460000
   12      H      -1.2112640000    -1.7743740000     0.8382460000
   13      H      -1.1444640000    -2.4784740000    -0.5156540000
   14      H       0.2086360000    -2.2935740000     0.6197460000
   15      H       2.1009360000     1.8626260000    -1.1506540000
 ----------------------------------------------------------------

   10    -629.3727679571      9.30e-07  Convergence criterion met
 Total energy in the final basis set =     -629.3727679571
        RIMP2         total energy =      -630.5614653615 a.u.

                    Orbital Energies (a.u.)
 --------------------------------------------------------------

 Alpha MOs
 -- Occupied --
-91.9715 -11.2730 -11.2561 -11.2494 -11.2462 -11.2288 -11.2101  -8.9724
 -6.6533  -6.6524  -6.6521  -1.1685  -1.0547  -0.9994  -0.9366  -0.8838
 -0.7458  -0.7287  -0.6434  -0.5892  -0.5823  -0.5656  -0.5559  -0.5430
 -0.5166  -0.4852  -0.4611  -0.4237  -0.3368  -0.2972

          Ground-State Mulliken Net Atomic Charges

     Atom                 Charge (a.u.)
  ----------------------------------------
      1 C                    -0.045344
      2 C                    -0.189851
      3 C                     0.005174
      4 H                     0.182025
      5 C                    -0.208989
      6 S                     0.006310
      7 C                    -0.268328
      8 H                     0.101600
      9 H                     0.106974
     10 H                     0.105844
     11 C                    -0.381533
     12 H                     0.114747
     13 H                     0.142544
     14 H                     0.134181
     15 H                     0.194645
  ----------------------------------------
  Sum of atomic charges =     0.000000

                    Cartesian Multipole Moments
 -----------------------------------------------------------------
    Charge (ESU x 10^10)
                -0.0000
    Dipole Moment (Debye)
         X       1.4008      Y       0.1225      Z       2.1452
       Tot       2.5650
    Quadrupole Moments (Debye-Ang)
        XX     -48.8275     XY       5.5627     YY     -48.2080
        XZ       0.0770     YZ      -0.6445     ZZ     -48.2858

 Total job time:  158.63s(wall), 157.83s(cpu)
        *  Thank you very much for using Q-Chem.  Have a nice day.  *
