 Q-Chem 5.4, Q-Chem, Inc., Pleasanton, CA (2021)
 Q-Chem 5.4.0 for Intel X86 EM64T Linux

User input:
--------------------------------------------------------------
$molecule
0 1
C	-0.286120	-0.512744	0.010180
C	0.078880	0.269956	1.109580
C	0.663780	1.524156	0.786880
H	-0.077020	-0.064344	2.146280
C	0.757080	1.724156	-0.602320
S	0.112180	0.341356	-1.476620
C	1.123480	2.509956	1.824780
H	0.943580	2.124256	2.846880
H	0.591180	3.480156	1.736380
H	2.208780	2.725856	1.736380
C	-0.286120	-1.953444	0.010180
H	-0.286220	-1.953644	1.090180
H	0.533080	-2.657244	0.010280
H	-1.233220	-2.472344	0.010180
H	1.158180	2.584456	-1.151420
$end

$rem
JOBTYPE		SP
EXCHANGE	HF
CORRELATION	pRIMP2
BASIS		cc-pvtz
METHOD		rimp2
AUX_BASIS	rimp2-cc-pvtz
SOLVENT_METHOD	PCM
PURECART	11111
SYMMETRY	false
MEM_TOTAL	110000
SCF_CONVERGENCE = 6
THRESH=10
$end

$solvent
dielectric 4.90
$end
--------------------------------------------------------------

             Standard Nuclear Orientation (Angstroms)
    I     Atom           X                Y                Z
 ----------------------------------------------------------------
    1      C      -0.2861200000    -0.5127440000     0.0101800000
    2      C       0.0788800000     0.2699560000     1.1095800000
    3      C       0.6637800000     1.5241560000     0.7868800000
    4      H      -0.0770200000    -0.0643440000     2.1462800000
    5      C       0.7570800000     1.7241560000    -0.6023200000
    6      S       0.1121800000     0.3413560000    -1.4766200000
    7      C       1.1234800000     2.5099560000     1.8247800000
    8      H       0.9435800000     2.1242560000     2.8468800000
    9      H       0.5911800000     3.4801560000     1.7363800000
   10      H       2.2087800000     2.7258560000     1.7363800000
   11      C      -0.2861200000    -1.9534440000     0.0101800000
   12      H      -0.2862200000    -1.9536440000     1.0901800000
   13      H       0.5330800000    -2.6572440000     0.0102800000
   14      H      -1.2332200000    -2.4723440000     0.0101800000
   15      H       1.1581800000     2.5844560000    -1.1514200000
 ----------------------------------------------------------------

   10    -629.4110364951      4.98e-07  Convergence criterion met
 Total energy in the final basis set =     -629.4110364951
        RIMP2         total energy =      -630.5920170198 a.u.

                    Orbital Energies (a.u.)
 --------------------------------------------------------------

 Alpha MOs
 -- Occupied --
-91.9743 -11.2714 -11.2618 -11.2473 -11.2377 -11.2278 -11.2136  -8.9746
 -6.6555  -6.6549  -6.6544  -1.1628  -1.0536  -0.9997  -0.9386  -0.8843
 -0.7429  -0.7260  -0.6477  -0.5892  -0.5793  -0.5687  -0.5572  -0.5418
 -0.5133  -0.4785  -0.4675  -0.4348  -0.3372  -0.3048

          Ground-State Mulliken Net Atomic Charges

     Atom                 Charge (a.u.)
  ----------------------------------------
      1 C                     0.023558
      2 C                    -0.258634
      3 C                     0.035868
      4 H                     0.176890
      5 C                    -0.243095
      6 S                    -0.004401
      7 C                    -0.270995
      8 H                     0.101304
      9 H                     0.106913
     10 H                     0.106852
     11 C                    -0.356496
     12 H                     0.117246
     13 H                     0.149433
     14 H                     0.122043
     15 H                     0.193516
  ----------------------------------------
  Sum of atomic charges =     0.000000

                    Cartesian Multipole Moments
 -----------------------------------------------------------------
    Charge (ESU x 10^10)
                -0.0000
    Dipole Moment (Debye)
         X       0.7292      Y       0.0975      Z       2.1854
       Tot       2.3059
    Quadrupole Moments (Debye-Ang)
        XX     -52.2454     XY       3.2536     YY     -44.0578
        XZ      -0.1184     YZ      -1.1093     ZZ     -48.8306

 Total job time:  157.54s(wall), 155.91s(cpu)
        *  Thank you very much for using Q-Chem.  Have a nice day.  *
