 Q-Chem 5.4, Q-Chem, Inc., Pleasanton, CA (2021)
 Q-Chem 5.4.0 for Intel X86 EM64T Linux

User input:
--------------------------------------------------------------
$molecule
0 1
C	-0.440403	-0.417594	0.012832
C	0.114697	0.243906	1.112232
C	1.004297	1.304106	0.789532
H	-0.122303	-0.038594	2.148932
C	1.146197	1.473106	-0.599668
S	0.165397	0.304306	-1.473968
C	1.703497	2.137306	1.827432
H	1.429897	1.811306	2.849532
H	1.440497	3.212106	1.739032
H	2.807697	2.064906	1.739032
C	-0.440403	-1.858294	0.012832
H	0.574397	-1.858494	0.382332
H	-0.160203	-2.562094	-0.756968
H	-0.764303	-2.377194	0.902832
H	1.756297	2.200206	-1.148768
$end

$rem
JOBTYPE		SP
EXCHANGE	HF
CORRELATION	pRIMP2
BASIS		cc-pvtz
METHOD		rimp2
AUX_BASIS	rimp2-cc-pvtz
SOLVENT_METHOD	PCM
PURECART	11111
SYMMETRY	false
MEM_TOTAL	110000
SCF_CONVERGENCE = 6
THRESH=10
$end

$solvent
dielectric 4.90
$end
--------------------------------------------------------------

             Standard Nuclear Orientation (Angstroms)
    I     Atom           X                Y                Z
 ----------------------------------------------------------------
    1      C      -0.4404030000    -0.4175940000     0.0128320000
    2      C       0.1146970000     0.2439060000     1.1122320000
    3      C       1.0042970000     1.3041060000     0.7895320000
    4      H      -0.1223030000    -0.0385940000     2.1489320000
    5      C       1.1461970000     1.4731060000    -0.5996680000
    6      S       0.1653970000     0.3043060000    -1.4739680000
    7      C       1.7034970000     2.1373060000     1.8274320000
    8      H       1.4298970000     1.8113060000     2.8495320000
    9      H       1.4404970000     3.2121060000     1.7390320000
   10      H       2.8076970000     2.0649060000     1.7390320000
   11      C      -0.4404030000    -1.8582940000     0.0128320000
   12      H       0.5743970000    -1.8584940000     0.3823320000
   13      H      -0.1602030000    -2.5620940000    -0.7569680000
   14      H      -0.7643030000    -2.3771940000     0.9028320000
   15      H       1.7562970000     2.2002060000    -1.1487680000
 ----------------------------------------------------------------

   10    -629.3898218106      5.79e-07  Convergence criterion met
 Total energy in the final basis set =     -629.3898218106
        RIMP2         total energy =      -630.5741325937 a.u.

                    Orbital Energies (a.u.)
 --------------------------------------------------------------

 Alpha MOs
 -- Occupied --
-91.9783 -11.2752 -11.2588 -11.2491 -11.2297 -11.2277 -11.2169  -8.9783
 -6.6592  -6.6586  -6.6581  -1.1672  -1.0565  -0.9981  -0.9375  -0.8823
 -0.7452  -0.7234  -0.6453  -0.5885  -0.5798  -0.5707  -0.5540  -0.5450
 -0.5108  -0.4848  -0.4582  -0.4568  -0.3371  -0.2872

          Ground-State Mulliken Net Atomic Charges

     Atom                 Charge (a.u.)
  ----------------------------------------
      1 C                     0.003046
      2 C                    -0.245099
      3 C                     0.031070
      4 H                     0.176246
      5 C                    -0.258751
      6 S                     0.009991
      7 C                    -0.269164
      8 H                     0.101806
      9 H                     0.107616
     10 H                     0.105516
     11 C                    -0.382801
     12 H                     0.146887
     13 H                     0.156569
     14 H                     0.123217
     15 H                     0.193851
  ----------------------------------------
  Sum of atomic charges =     0.000000

                    Cartesian Multipole Moments
 -----------------------------------------------------------------
    Charge (ESU x 10^10)
                -0.0000
    Dipole Moment (Debye)
         X       1.6379      Y      -0.4003      Z       1.6917
       Tot       2.3885
    Quadrupole Moments (Debye-Ang)
        XX     -51.5644     XY       3.3068     YY     -46.1969
        XZ      -0.0717     YZ      -0.2291     ZZ     -48.2527

 Total job time:  162.38s(wall), 160.14s(cpu)
        *  Thank you very much for using Q-Chem.  Have a nice day.  *
