 Q-Chem 5.4, Q-Chem, Inc., Pleasanton, CA (2021)
 Q-Chem 5.4.0 for Intel X86 EM64T Linux

User input:
--------------------------------------------------------------
$molecule
0 1
C	0.004472	-0.576309	0.013104
C	0.004472	0.287291	1.112504
C	0.004572	1.671191	0.789804
H	0.004472	-0.081509	2.149204
C	0.004572	1.891891	-0.599396
S	0.004472	0.366091	-1.473696
C	0.004572	2.758991	1.827704
H	0.004572	2.333291	2.849804
H	-0.887828	3.413291	1.739304
H	0.896972	3.413191	1.739304
C	0.004472	-2.017009	0.013104
H	-0.930928	-2.017209	0.553004
H	0.413972	-2.720809	0.722604
H	-0.469128	-2.535909	-0.807096
H	0.004572	2.841091	-1.148496
$end

$rem
JOBTYPE		SP
EXCHANGE	HF
CORRELATION	pRIMP2
BASIS		cc-pvtz
METHOD		rimp2
AUX_BASIS	rimp2-cc-pvtz
SOLVENT_METHOD	PCM
PURECART	11111
SYMMETRY	false
MEM_TOTAL	110000
SCF_CONVERGENCE = 6
THRESH=10
$end

$solvent
dielectric 4.90
$end
--------------------------------------------------------------

   10    -629.4238385204      6.38e-07  Convergence criterion met
 Total energy in the final basis set =     -629.4238385204
        RIMP2         total energy =      -630.6001571198 a.u.
 Total job time:  156.71s(wall), 154.59s(cpu)
        *  Thank you very much for using Q-Chem.  Have a nice day.  *
 Q-Chem 5.4, Q-Chem, Inc., Pleasanton, CA (2021)
 Q-Chem 5.4.0 for Intel X86 EM64T Linux

User input:
--------------------------------------------------------------
$molecule
0 1
C	0.004472	-0.576309	0.013104
C	0.004472	0.287291	1.112504
C	0.004572	1.671191	0.789804
H	0.004472	-0.081509	2.149204
C	0.004572	1.891891	-0.599396
S	0.004472	0.366091	-1.473696
C	0.004572	2.758991	1.827704
H	0.004572	2.333291	2.849804
H	-0.887828	3.413291	1.739304
H	0.896972	3.413191	1.739304
C	0.004472	-2.017009	0.013104
H	-0.930928	-2.017209	0.553004
H	0.413972	-2.720809	0.722604
H	-0.469128	-2.535909	-0.807096
H	0.004572	2.841091	-1.148496
$end

$rem
JOBTYPE		SP
EXCHANGE	HF
CORRELATION	pRIMP2
BASIS		cc-pvtz
METHOD		rimp2
AUX_BASIS	rimp2-cc-pvtz
SOLVENT_METHOD	PCM
PURECART	11111
SYMMETRY	false
MEM_TOTAL	110000
SCF_CONVERGENCE = 6
THRESH=10
$end

$solvent
dielectric 4.90
$end
--------------------------------------------------------------

             Standard Nuclear Orientation (Angstroms)
    I     Atom           X                Y                Z
 ----------------------------------------------------------------
    1      C       0.0044720000    -0.5763090000     0.0131040000
    2      C       0.0044720000     0.2872910000     1.1125040000
    3      C       0.0045720000     1.6711910000     0.7898040000
    4      H       0.0044720000    -0.0815090000     2.1492040000
    5      C       0.0045720000     1.8918910000    -0.5993960000
    6      S       0.0044720000     0.3660910000    -1.4736960000
    7      C       0.0045720000     2.7589910000     1.8277040000
    8      H       0.0045720000     2.3332910000     2.8498040000
    9      H      -0.8878280000     3.4132910000     1.7393040000
   10      H       0.8969720000     3.4131910000     1.7393040000
   11      C       0.0044720000    -2.0170090000     0.0131040000
   12      H      -0.9309280000    -2.0172090000     0.5530040000
   13      H       0.4139720000    -2.7208090000     0.7226040000
   14      H      -0.4691280000    -2.5359090000    -0.8070960000
   15      H       0.0045720000     2.8410910000    -1.1484960000
 ----------------------------------------------------------------

   10    -629.4238385204      6.38e-07  Convergence criterion met
 Total energy in the final basis set =     -629.4238385204
        RIMP2         total energy =      -630.6001571198 a.u.

                    Orbital Energies (a.u.)
 --------------------------------------------------------------

 Alpha MOs
 -- Occupied --
-91.9786 -11.2839 -11.2499 -11.2471 -11.2266 -11.2246 -11.2203  -8.9783
 -6.6592  -6.6587  -6.6581  -1.1601  -1.0554  -0.9981  -0.9410  -0.8833
 -0.7427  -0.7200  -0.6497  -0.5880  -0.5733  -0.5671  -0.5585  -0.5443
 -0.5080  -0.4916  -0.4659  -0.4532  -0.3375  -0.2913

          Ground-State Mulliken Net Atomic Charges

     Atom                 Charge (a.u.)
  ----------------------------------------
      1 C                     0.071315
      2 C                    -0.299706
      3 C                     0.045134
      4 H                     0.175244
      5 C                    -0.274854
      6 S                     0.000686
      7 C                    -0.275251
      8 H                     0.101252
      9 H                     0.107184
     10 H                     0.107282
     11 C                    -0.384540
     12 H                     0.140312
     13 H                     0.156698
     14 H                     0.136836
     15 H                     0.192408
  ----------------------------------------
  Sum of atomic charges =     0.000000

                    Cartesian Multipole Moments
 -----------------------------------------------------------------
    Charge (ESU x 10^10)
                -0.0000
    Dipole Moment (Debye)
         X      -0.6378      Y      -0.5999      Z       1.7538
       Tot       1.9602
    Quadrupole Moments (Debye-Ang)
        XX     -54.2223     XY       1.3324     YY     -41.9265
        XZ       0.2283     YZ      -0.5206     ZZ     -48.6132

 Total job time:  156.94s(wall), 154.84s(cpu)
        *  Thank you very much for using Q-Chem.  Have a nice day.  *
