 Q-Chem 5.4, Q-Chem, Inc., Pleasanton, CA (2021)
 Q-Chem 5.4.0 for Intel X86 EM64T Linux

User input:
--------------------------------------------------------------
$molecule
0 1
C	-0.586896	-0.237129	0.019883
C	0.161004	0.194671	1.119283
C	1.359504	0.886571	0.796583
H	-0.158396	0.010271	2.155983
C	1.550604	0.996871	-0.592617
S	0.229304	0.234071	-1.466917
C	2.301604	1.430471	1.834483
H	1.932904	1.217571	2.856583
H	2.422004	2.530371	1.746083
H	3.314404	0.984671	1.746083
C	-0.586896	-1.677829	0.019883
H	-0.586796	-1.677529	-1.060117
H	0.232304	-2.381629	0.019983
H	-1.533996	-2.196729	0.019883
H	2.372704	1.471471	-1.141717
$end

$rem
JOBTYPE		SP
EXCHANGE	HF
CORRELATION	pRIMP2
BASIS		cc-pvtz
METHOD		rimp2
AUX_BASIS	rimp2-cc-pvtz
SOLVENT_METHOD	PCM
PURECART	11111
SYMMETRY	false
MEM_TOTAL	110000
SCF_CONVERGENCE = 6
THRESH=10
$end

$solvent
dielectric 4.90
$end
--------------------------------------------------------------

             Standard Nuclear Orientation (Angstroms)
    I     Atom           X                Y                Z
 ----------------------------------------------------------------
    1      C      -0.5868960000    -0.2371290000     0.0198830000
    2      C       0.1610040000     0.1946710000     1.1192830000
    3      C       1.3595040000     0.8865710000     0.7965830000
    4      H      -0.1583960000     0.0102710000     2.1559830000
    5      C       1.5506040000     0.9968710000    -0.5926170000
    6      S       0.2293040000     0.2340710000    -1.4669170000
    7      C       2.3016040000     1.4304710000     1.8344830000
    8      H       1.9329040000     1.2175710000     2.8565830000
    9      H       2.4220040000     2.5303710000     1.7460830000
   10      H       3.3144040000     0.9846710000     1.7460830000
   11      C      -0.5868960000    -1.6778290000     0.0198830000
   12      H      -0.5867960000    -1.6775290000    -1.0601170000
   13      H       0.2323040000    -2.3816290000     0.0199830000
   14      H      -1.5339960000    -2.1967290000     0.0198830000
   15      H       2.3727040000     1.4714710000    -1.1417170000
 ----------------------------------------------------------------

   11    -629.3396979384      3.83e-07  Convergence criterion met
 Total energy in the final basis set =     -629.3396979384
        RIMP2         total energy =      -630.5305466166 a.u.

                    Orbital Energies (a.u.)
 --------------------------------------------------------------

 Alpha MOs
 -- Occupied --
-91.9736 -11.2852 -11.2551 -11.2473 -11.2390 -11.2286 -11.2052  -8.9751
 -6.6558  -6.6548  -6.6546  -1.1751  -1.0578  -0.9955  -0.9443  -0.8775
 -0.7570  -0.7287  -0.6448  -0.5885  -0.5815  -0.5697  -0.5514  -0.5464
 -0.5202  -0.4661  -0.4514  -0.4350  -0.3275  -0.3074

          Ground-State Mulliken Net Atomic Charges

     Atom                 Charge (a.u.)
  ----------------------------------------
      1 C                    -0.117718
      2 C                    -0.106315
      3 C                    -0.020278
      4 H                     0.184979
      5 C                    -0.179312
      6 S                     0.007305
      7 C                    -0.268786
      8 H                     0.102145
      9 H                     0.106620
     10 H                     0.103379
     11 C                    -0.363268
     12 H                     0.117027
     13 H                     0.129424
     14 H                     0.105874
     15 H                     0.198925
  ----------------------------------------
  Sum of atomic charges =     0.000000

                    Cartesian Multipole Moments
 -----------------------------------------------------------------
    Charge (ESU x 10^10)
                -0.0000
    Dipole Moment (Debye)
         X       2.5652      Y       0.3201      Z       1.1653
       Tot       2.8356
    Quadrupole Moments (Debye-Ang)
        XX     -47.9587     XY       4.0415     YY     -50.2943
        XZ      -0.1240     YZ       1.1182     ZZ     -47.8038

 Total job time:  177.89s(wall), 176.25s(cpu)
        *  Thank you very much for using Q-Chem.  Have a nice day.  *
