 Q-Chem 5.4, Q-Chem, Inc., Pleasanton, CA (2021)
 Q-Chem 5.4.0 for Intel X86 EM64T Linux

User input:
--------------------------------------------------------------
$molecule
0 1
C	-0.336499	-0.485419	0.019119
C	0.095301	0.262481	1.118519
C	0.787301	1.460981	0.795819
H	-0.089099	-0.056919	2.155219
C	0.897601	1.652081	-0.593381
S	0.134701	0.330681	-1.467681
C	1.331201	2.402981	1.833719
H	1.118401	2.034381	2.855819
H	0.885501	3.415781	1.745319
H	2.431201	2.523381	1.745319
C	-0.336499	-1.926119	0.019119
H	-1.030599	-1.926319	-0.808281
H	-0.964099	-2.629919	0.545619
H	0.389001	-2.445019	-0.589681
H	1.372301	2.474081	-1.142481
$end

$rem
JOBTYPE		SP
EXCHANGE	HF
CORRELATION	pRIMP2
BASIS		cc-pvtz
METHOD		rimp2
AUX_BASIS	rimp2-cc-pvtz
SOLVENT_METHOD	PCM
PURECART	11111
SYMMETRY	false
MEM_TOTAL	110000
SCF_CONVERGENCE = 6
THRESH=10
$end

$solvent
dielectric 4.90
$end
--------------------------------------------------------------

   10    -629.4021059368      5.22e-07  Convergence criterion met
 Total energy in the final basis set =     -629.4021059368
        RIMP2         total energy =      -630.5833190989 a.u.
 Total job time:  157.17s(wall), 155.05s(cpu)
        *  Thank you very much for using Q-Chem.  Have a nice day.  *
 Q-Chem 5.4, Q-Chem, Inc., Pleasanton, CA (2021)
 Q-Chem 5.4.0 for Intel X86 EM64T Linux

User input:
--------------------------------------------------------------
$molecule
0 1
C	-0.336499	-0.485419	0.019119
C	0.095301	0.262481	1.118519
C	0.787301	1.460981	0.795819
H	-0.089099	-0.056919	2.155219
C	0.897601	1.652081	-0.593381
S	0.134701	0.330681	-1.467681
C	1.331201	2.402981	1.833719
H	1.118401	2.034381	2.855819
H	0.885501	3.415781	1.745319
H	2.431201	2.523381	1.745319
C	-0.336499	-1.926119	0.019119
H	-1.030599	-1.926319	-0.808281
H	-0.964099	-2.629919	0.545619
H	0.389001	-2.445019	-0.589681
H	1.372301	2.474081	-1.142481
$end

$rem
JOBTYPE		SP
EXCHANGE	HF
CORRELATION	pRIMP2
BASIS		cc-pvtz
METHOD		rimp2
AUX_BASIS	rimp2-cc-pvtz
SOLVENT_METHOD	PCM
PURECART	11111
SYMMETRY	false
MEM_TOTAL	110000
SCF_CONVERGENCE = 6
THRESH=10
$end

$solvent
dielectric 4.90
$end
--------------------------------------------------------------

             Standard Nuclear Orientation (Angstroms)
    I     Atom           X                Y                Z
 ----------------------------------------------------------------
    1      C      -0.3364990000    -0.4854190000     0.0191190000
    2      C       0.0953010000     0.2624810000     1.1185190000
    3      C       0.7873010000     1.4609810000     0.7958190000
    4      H      -0.0890990000    -0.0569190000     2.1552190000
    5      C       0.8976010000     1.6520810000    -0.5933810000
    6      S       0.1347010000     0.3306810000    -1.4676810000
    7      C       1.3312010000     2.4029810000     1.8337190000
    8      H       1.1184010000     2.0343810000     2.8558190000
    9      H       0.8855010000     3.4157810000     1.7453190000
   10      H       2.4312010000     2.5233810000     1.7453190000
   11      C      -0.3364990000    -1.9261190000     0.0191190000
   12      H      -1.0305990000    -1.9263190000    -0.8082810000
   13      H      -0.9640990000    -2.6299190000     0.5456190000
   14      H       0.3890010000    -2.4450190000    -0.5896810000
   15      H       1.3723010000     2.4740810000    -1.1424810000
 ----------------------------------------------------------------

   10    -629.4021059368      5.22e-07  Convergence criterion met
 Total energy in the final basis set =     -629.4021059368
        RIMP2         total energy =      -630.5833190989 a.u.

                    Orbital Energies (a.u.)
 --------------------------------------------------------------

 Alpha MOs
 -- Occupied --
-91.9792 -11.2699 -11.2613 -11.2473 -11.2314 -11.2269 -11.2141  -8.9792
 -6.6601  -6.6596  -6.6590  -1.1627  -1.0547  -0.9951  -0.9449  -0.8815
 -0.7477  -0.7202  -0.6457  -0.5903  -0.5748  -0.5676  -0.5527  -0.5463
 -0.5116  -0.4819  -0.4617  -0.4479  -0.3379  -0.2966

          Ground-State Mulliken Net Atomic Charges

     Atom                 Charge (a.u.)
  ----------------------------------------
      1 C                    -0.007690
      2 C                    -0.232563
      3 C                     0.031146
      4 H                     0.179571
      5 C                    -0.242632
      6 S                    -0.000371
      7 C                    -0.271667
      8 H                     0.101697
      9 H                     0.106945
     10 H                     0.106040
     11 C                    -0.370071
     12 H                     0.116343
     13 H                     0.152736
     14 H                     0.135685
     15 H                     0.194830
  ----------------------------------------
  Sum of atomic charges =     0.000000

                    Cartesian Multipole Moments
 -----------------------------------------------------------------
    Charge (ESU x 10^10)
                -0.0000
    Dipole Moment (Debye)
         X       0.4709      Y       0.0012      Z       1.0540
       Tot       1.1544
    Quadrupole Moments (Debye-Ang)
        XX     -51.7033     XY       4.8723     YY     -44.5810
        XZ      -0.1918     YZ       0.8983     ZZ     -48.5690

 Total job time:  156.49s(wall), 155.09s(cpu)
        *  Thank you very much for using Q-Chem.  Have a nice day.  *
