 Q-Chem 5.4, Q-Chem, Inc., Pleasanton, CA (2021)
 Q-Chem 5.4.0 for Intel X86 EM64T Linux

User input:
--------------------------------------------------------------
$molecule
0 1
C	-0.119221	-0.566007	0.019710
C	0.030779	0.284493	1.119110
C	0.271079	1.647393	0.796410
H	-0.033321	-0.078707	2.155810
C	0.309479	1.864693	-0.592790
S	0.044479	0.362093	-1.467090
C	0.459979	2.718593	1.834310
H	0.386079	2.299393	2.856410
H	-0.305221	3.517893	1.745910
H	1.452479	3.207893	1.745910
C	-0.119221	-2.006707	0.019710
H	0.068479	-2.006907	-1.043890
H	-0.925921	-2.710507	-0.122590
H	0.813479	-2.525607	0.184210
H	0.474279	2.799393	-1.141890
$end

$rem
JOBTYPE		SP
EXCHANGE	HF
CORRELATION	pRIMP2
BASIS		cc-pvtz
METHOD		rimp2
AUX_BASIS	rimp2-cc-pvtz
SOLVENT_METHOD	PCM
PURECART	11111
SYMMETRY	false
MEM_TOTAL	110000
SCF_CONVERGENCE = 6
THRESH=10
$end

$solvent
dielectric 4.90
$end
--------------------------------------------------------------

   10    -629.4190090973      5.48e-07  Convergence criterion met
 Total energy in the final basis set =     -629.4190090973
        RIMP2         total energy =      -630.5971550845 a.u.
 Total job time:  157.28s(wall), 155.86s(cpu)
        *  Thank you very much for using Q-Chem.  Have a nice day.  *
 Q-Chem 5.4, Q-Chem, Inc., Pleasanton, CA (2021)
 Q-Chem 5.4.0 for Intel X86 EM64T Linux

User input:
--------------------------------------------------------------
$molecule
0 1
C	-0.119221	-0.566007	0.019710
C	0.030779	0.284493	1.119110
C	0.271079	1.647393	0.796410
H	-0.033321	-0.078707	2.155810
C	0.309479	1.864693	-0.592790
S	0.044479	0.362093	-1.467090
C	0.459979	2.718593	1.834310
H	0.386079	2.299393	2.856410
H	-0.305221	3.517893	1.745910
H	1.452479	3.207893	1.745910
C	-0.119221	-2.006707	0.019710
H	0.068479	-2.006907	-1.043890
H	-0.925921	-2.710507	-0.122590
H	0.813479	-2.525607	0.184210
H	0.474279	2.799393	-1.141890
$end

$rem
JOBTYPE		SP
EXCHANGE	HF
CORRELATION	pRIMP2
BASIS		cc-pvtz
METHOD		rimp2
AUX_BASIS	rimp2-cc-pvtz
SOLVENT_METHOD	PCM
PURECART	11111
SYMMETRY	false
MEM_TOTAL	110000
SCF_CONVERGENCE = 6
THRESH=10
$end

$solvent
dielectric 4.90
$end
--------------------------------------------------------------

             Standard Nuclear Orientation (Angstroms)
    I     Atom           X                Y                Z
 ----------------------------------------------------------------
    1      C      -0.1192210000    -0.5660070000     0.0197100000
    2      C       0.0307790000     0.2844930000     1.1191100000
    3      C       0.2710790000     1.6473930000     0.7964100000
    4      H      -0.0333210000    -0.0787070000     2.1558100000
    5      C       0.3094790000     1.8646930000    -0.5927900000
    6      S       0.0444790000     0.3620930000    -1.4670900000
    7      C       0.4599790000     2.7185930000     1.8343100000
    8      H       0.3860790000     2.2993930000     2.8564100000
    9      H      -0.3052210000     3.5178930000     1.7459100000
   10      H       1.4524790000     3.2078930000     1.7459100000
   11      C      -0.1192210000    -2.0067070000     0.0197100000
   12      H       0.0684790000    -2.0069070000    -1.0438900000
   13      H      -0.9259210000    -2.7105070000    -0.1225900000
   14      H       0.8134790000    -2.5256070000     0.1842100000
   15      H       0.4742790000     2.7993930000    -1.1418900000
 ----------------------------------------------------------------

   10    -629.4190090973      5.48e-07  Convergence criterion met
 Total energy in the final basis set =     -629.4190090973
        RIMP2         total energy =      -630.5971550845 a.u.

                    Orbital Energies (a.u.)
 --------------------------------------------------------------

 Alpha MOs
 -- Occupied --
-91.9802 -11.2747 -11.2580 -11.2470 -11.2295 -11.2269 -11.2158  -8.9800
 -6.6610  -6.6604  -6.6598  -1.1612  -1.0552  -0.9952  -0.9462  -0.8815
 -0.7480  -0.7187  -0.6478  -0.5917  -0.5756  -0.5658  -0.5533  -0.5475
 -0.5089  -0.4860  -0.4648  -0.4441  -0.3383  -0.3035

          Ground-State Mulliken Net Atomic Charges

     Atom                 Charge (a.u.)
  ----------------------------------------
      1 C                     0.055516
      2 C                    -0.267654
      3 C                     0.043455
      4 H                     0.179646
      5 C                    -0.260329
      6 S                    -0.002878
      7 C                    -0.272920
      8 H                     0.101848
      9 H                     0.106940
     10 H                     0.106813
     11 C                    -0.371029
     12 H                     0.113663
     13 H                     0.143961
     14 H                     0.127630
     15 H                     0.195338
  ----------------------------------------
  Sum of atomic charges =     0.000000

                    Cartesian Multipole Moments
 -----------------------------------------------------------------
    Charge (ESU x 10^10)
                -0.0000
    Dipole Moment (Debye)
         X       0.4003      Y       0.0212      Z       0.8619
       Tot       0.9506
    Quadrupole Moments (Debye-Ang)
        XX     -53.4941     XY       1.3598     YY     -42.4989
        XZ       0.2157     YZ       1.5033     ZZ     -48.8094

 Total job time:  156.06s(wall), 154.84s(cpu)
        *  Thank you very much for using Q-Chem.  Have a nice day.  *
