 Q-Chem 5.4, Q-Chem, Inc., Pleasanton, CA (2021)
 Q-Chem 5.4.0 for Intel X86 EM64T Linux

User input:
--------------------------------------------------------------
$molecule
0 1
C	-0.178922	-0.553191	0.018590
C	0.044578	0.281009	1.117990
C	0.402778	1.617709	0.795290
H	-0.050822	-0.075291	2.154690
C	0.459978	1.830809	-0.593910
S	0.064978	0.357109	-1.468210
C	0.684378	2.668409	1.833190
H	0.574178	2.257309	2.855290
H	-0.008222	3.531409	1.744790
H	1.715678	3.069409	1.744790
C	-0.178922	-1.993891	0.018590
H	0.648478	-1.993591	-0.675510
H	0.347578	-2.697691	0.646190
H	-0.787722	-2.512791	-0.706910
H	0.705678	2.747709	-1.143010
$end

$rem
JOBTYPE		SP
EXCHANGE	HF
CORRELATION	pRIMP2
BASIS		cc-pvtz
METHOD		rimp2
AUX_BASIS	rimp2-cc-pvtz
SOLVENT_METHOD	PCM
PURECART	11111
SYMMETRY	false
MEM_TOTAL	110000
SCF_CONVERGENCE = 6
THRESH=10
$end

$solvent
dielectric 4.90
$end
--------------------------------------------------------------

             Standard Nuclear Orientation (Angstroms)
    I     Atom           X                Y                Z
 ----------------------------------------------------------------
    1      C      -0.1789220000    -0.5531910000     0.0185900000
    2      C       0.0445780000     0.2810090000     1.1179900000
    3      C       0.4027780000     1.6177090000     0.7952900000
    4      H      -0.0508220000    -0.0752910000     2.1546900000
    5      C       0.4599780000     1.8308090000    -0.5939100000
    6      S       0.0649780000     0.3571090000    -1.4682100000
    7      C       0.6843780000     2.6684090000     1.8331900000
    8      H       0.5741780000     2.2573090000     2.8552900000
    9      H      -0.0082220000     3.5314090000     1.7447900000
   10      H       1.7156780000     3.0694090000     1.7447900000
   11      C      -0.1789220000    -1.9938910000     0.0185900000
   12      H       0.6484780000    -1.9935910000    -0.6755100000
   13      H       0.3475780000    -2.6976910000     0.6461900000
   14      H      -0.7877220000    -2.5127910000    -0.7069100000
   15      H       0.7056780000     2.7477090000    -1.1430100000
 ----------------------------------------------------------------

   10    -629.4189875502      6.77e-07  Convergence criterion met
 Total energy in the final basis set =     -629.4189875502
        RIMP2         total energy =      -630.5955912270 a.u.

                    Orbital Energies (a.u.)
 --------------------------------------------------------------

 Alpha MOs
 -- Occupied --
-91.9776 -11.2802 -11.2542 -11.2468 -11.2269 -11.2266 -11.2190  -8.9778
 -6.6588  -6.6582  -6.6576  -1.1616  -1.0562  -0.9955  -0.9447  -0.8814
 -0.7464  -0.7187  -0.6489  -0.5885  -0.5771  -0.5648  -0.5530  -0.5476
 -0.5087  -0.4902  -0.4646  -0.4521  -0.3397  -0.2936

          Ground-State Mulliken Net Atomic Charges

     Atom                 Charge (a.u.)
  ----------------------------------------
      1 C                     0.059803
      2 C                    -0.312215
      3 C                     0.057176
      4 H                     0.179620
      5 C                    -0.267457
      6 S                    -0.003608
      7 C                    -0.272219
      8 H                     0.101511
      9 H                     0.107438
     10 H                     0.107048
     11 C                    -0.373784
     12 H                     0.131863
     13 H                     0.159043
     14 H                     0.132054
     15 H                     0.193726
  ----------------------------------------
  Sum of atomic charges =     0.000000

                    Cartesian Multipole Moments
 -----------------------------------------------------------------
    Charge (ESU x 10^10)
                -0.0000
    Dipole Moment (Debye)
         X       0.8776      Y      -0.3823      Z       1.0232
       Tot       1.4012
    Quadrupole Moments (Debye-Ang)
        XX     -53.7417     XY       1.0147     YY     -42.5536
        XZ       0.4131     YZ       1.0625     ZZ     -48.6978

 Total job time:  155.80s(wall), 154.68s(cpu)
        *  Thank you very much for using Q-Chem.  Have a nice day.  *
