 Q-Chem 5.4, Q-Chem, Inc., Pleasanton, CA (2021)
 Q-Chem 5.4.0 for Intel X86 EM64T Linux

User input:
--------------------------------------------------------------
$molecule
0 1
C	-0.285576	-0.512744	0.019788
C	0.079424	0.269956	1.119188
C	0.664324	1.524156	0.796488
H	-0.076476	-0.064344	2.155888
C	0.757624	1.724156	-0.592712
S	0.112724	0.341356	-1.467012
C	1.124024	2.509956	1.834388
H	0.944124	2.124256	2.856488
H	0.591724	3.480156	1.745988
H	2.209324	2.725856	1.745988
C	-0.285576	-1.953444	0.019788
H	-0.654876	-1.953644	-0.995112
H	-1.055376	-2.657244	0.299888
H	0.604424	-2.472344	-0.304112
H	1.158724	2.584456	-1.141812
$end

$rem
JOBTYPE		SP
EXCHANGE	HF
CORRELATION	pRIMP2
BASIS		cc-pvtz
METHOD		rimp2
AUX_BASIS	rimp2-cc-pvtz
SOLVENT_METHOD	PCM
PURECART	11111
SYMMETRY	false
MEM_TOTAL	110000
SCF_CONVERGENCE = 6
THRESH=10
$end

$solvent
dielectric 4.90
$end
--------------------------------------------------------------

             Standard Nuclear Orientation (Angstroms)
    I     Atom           X                Y                Z
 ----------------------------------------------------------------
    1      C      -0.2855760000    -0.5127440000     0.0197880000
    2      C       0.0794240000     0.2699560000     1.1191880000
    3      C       0.6643240000     1.5241560000     0.7964880000
    4      H      -0.0764760000    -0.0643440000     2.1558880000
    5      C       0.7576240000     1.7241560000    -0.5927120000
    6      S       0.1127240000     0.3413560000    -1.4670120000
    7      C       1.1240240000     2.5099560000     1.8343880000
    8      H       0.9441240000     2.1242560000     2.8564880000
    9      H       0.5917240000     3.4801560000     1.7459880000
   10      H       2.2093240000     2.7258560000     1.7459880000
   11      C      -0.2855760000    -1.9534440000     0.0197880000
   12      H      -0.6548760000    -1.9536440000    -0.9951120000
   13      H      -1.0553760000    -2.6572440000     0.2998880000
   14      H       0.6044240000    -2.4723440000    -0.3041120000
   15      H       1.1587240000     2.5844560000    -1.1418120000
 ----------------------------------------------------------------

   10    -629.4087300123      5.21e-07  Convergence criterion met
 Total energy in the final basis set =     -629.4087300123
        RIMP2         total energy =      -630.5890714075 a.u.

                    Orbital Energies (a.u.)
 --------------------------------------------------------------

 Alpha MOs
 -- Occupied --
-91.9801 -11.2703 -11.2612 -11.2473 -11.2314 -11.2270 -11.2146  -8.9800
 -6.6609  -6.6604  -6.6598  -1.1625  -1.0549  -0.9950  -0.9458  -0.8813
 -0.7484  -0.7197  -0.6466  -0.5915  -0.5753  -0.5665  -0.5531  -0.5470
 -0.5109  -0.4805  -0.4644  -0.4447  -0.3378  -0.3022

          Ground-State Mulliken Net Atomic Charges

     Atom                 Charge (a.u.)
  ----------------------------------------
      1 C                     0.014953
      2 C                    -0.249045
      3 C                     0.037612
      4 H                     0.179090
      5 C                    -0.249016
      6 S                    -0.000082
      7 C                    -0.271802
      8 H                     0.101953
      9 H                     0.106764
     10 H                     0.106280
     11 C                    -0.361850
     12 H                     0.110532
     13 H                     0.150498
     14 H                     0.129003
     15 H                     0.195110
  ----------------------------------------
  Sum of atomic charges =     0.000000

                    Cartesian Multipole Moments
 -----------------------------------------------------------------
    Charge (ESU x 10^10)
                -0.0000
    Dipole Moment (Debye)
         X       0.5300      Y       0.0944      Z       0.9432
       Tot       1.0860
    Quadrupole Moments (Debye-Ang)
        XX     -52.2123     XY       4.0290     YY     -43.9389
        XZ      -0.0290     YZ       1.1886     ZZ     -48.7087

 Total job time:  156.54s(wall), 155.17s(cpu)
        *  Thank you very much for using Q-Chem.  Have a nice day.  *
