 Q-Chem 5.4, Q-Chem, Inc., Pleasanton, CA (2021)
 Q-Chem 5.4.0 for Intel X86 EM64T Linux

User input:
--------------------------------------------------------------
$molecule
0 1
C	-0.058869	-0.573727	0.019910
C	0.016431	0.286573	1.119310
C	0.137031	1.665273	0.796610
H	-0.015669	-0.080827	2.156010
C	0.156331	1.885073	-0.592590
S	0.023331	0.365073	-1.466890
C	0.231931	2.748873	1.834510
H	0.194831	2.324773	2.856610
H	-0.600069	3.478373	1.746110
H	1.177931	3.322873	1.746110
C	-0.058869	-2.014427	0.019910
H	-0.246269	-2.014627	-1.043690
H	-0.865669	-2.718227	0.162110
H	0.873831	-2.533327	-0.144590
H	0.239031	2.830673	-1.141690
$end

$rem
JOBTYPE		SP
EXCHANGE	HF
CORRELATION	pRIMP2
BASIS		cc-pvtz
METHOD		rimp2
AUX_BASIS	rimp2-cc-pvtz
SOLVENT_METHOD	PCM
PURECART	11111
SYMMETRY	false
MEM_TOTAL	110000
SCF_CONVERGENCE = 6
THRESH=10
$end

$solvent
dielectric 4.90
$end
--------------------------------------------------------------

             Standard Nuclear Orientation (Angstroms)
    I     Atom           X                Y                Z
 ----------------------------------------------------------------
    1      C      -0.0588690000    -0.5737270000     0.0199100000
    2      C       0.0164310000     0.2865730000     1.1193100000
    3      C       0.1370310000     1.6652730000     0.7966100000
    4      H      -0.0156690000    -0.0808270000     2.1560100000
    5      C       0.1563310000     1.8850730000    -0.5925900000
    6      S       0.0233310000     0.3650730000    -1.4668900000
    7      C       0.2319310000     2.7488730000     1.8345100000
    8      H       0.1948310000     2.3247730000     2.8566100000
    9      H      -0.6000690000     3.4783730000     1.7461100000
   10      H       1.1779310000     3.3228730000     1.7461100000
   11      C      -0.0588690000    -2.0144270000     0.0199100000
   12      H      -0.2462690000    -2.0146270000    -1.0436900000
   13      H      -0.8656690000    -2.7182270000     0.1621100000
   14      H       0.8738310000    -2.5333270000    -0.1445900000
   15      H       0.2390310000     2.8306730000    -1.1416900000
 ----------------------------------------------------------------

   10    -629.4203652854      5.46e-07  Convergence criterion met
 Total energy in the final basis set =     -629.4203652854
        RIMP2         total energy =      -630.5981639416 a.u.

                    Orbital Energies (a.u.)
 --------------------------------------------------------------

 Alpha MOs
 -- Occupied --
-91.9808 -11.2750 -11.2577 -11.2471 -11.2289 -11.2268 -11.2161  -8.9806
 -6.6615  -6.6610  -6.6604  -1.1609  -1.0551  -0.9953  -0.9464  -0.8817
 -0.7479  -0.7185  -0.6482  -0.5916  -0.5752  -0.5656  -0.5539  -0.5474
 -0.5088  -0.4861  -0.4651  -0.4444  -0.3384  -0.3035

          Ground-State Mulliken Net Atomic Charges

     Atom                 Charge (a.u.)
  ----------------------------------------
      1 C                     0.056588
      2 C                    -0.264644
      3 C                     0.040203
      4 H                     0.180100
      5 C                    -0.259903
      6 S                    -0.002732
      7 C                    -0.273322
      8 H                     0.101880
      9 H                     0.106812
     10 H                     0.106900
     11 C                    -0.370839
     12 H                     0.112523
     13 H                     0.148082
     14 H                     0.123021
     15 H                     0.195331
  ----------------------------------------
  Sum of atomic charges =     0.000000

                    Cartesian Multipole Moments
 -----------------------------------------------------------------
    Charge (ESU x 10^10)
                -0.0000
    Dipole Moment (Debye)
         X       0.0395      Y       0.0196      Z       0.8516
       Tot       0.8528
    Quadrupole Moments (Debye-Ang)
        XX     -53.6338     XY       1.1373     YY     -42.2304
        XZ      -0.0499     YZ       1.4498     ZZ     -48.8398

 Total job time:  158.23s(wall), 157.11s(cpu)
        *  Thank you very much for using Q-Chem.  Have a nice day.  *
