 Q-Chem 5.4, Q-Chem, Inc., Pleasanton, CA (2021)
 Q-Chem 5.4.0 for Intel X86 EM64T Linux

User input:
--------------------------------------------------------------
$molecule
0 1
C	-0.001946	-0.576309	0.010542
C	-0.001946	0.287291	1.109942
C	-0.001846	1.671191	0.787242
H	-0.001946	-0.081509	2.146642
C	-0.001846	1.891891	-0.601958
S	-0.001946	0.366091	-1.476258
C	-0.001846	2.758991	1.825142
H	-0.001846	2.333291	2.847242
H	-0.894246	3.413291	1.736742
H	0.890554	3.413191	1.736742
C	-0.001946	-2.017009	0.010542
H	0.537954	-2.017209	0.945942
H	0.707554	-2.720809	-0.398958
H	-0.822146	-2.535909	0.484142
H	-0.001846	2.841091	-1.151058
$end

$rem
JOBTYPE		SP
EXCHANGE	HF
CORRELATION	pRIMP2
BASIS		cc-pvtz
METHOD		rimp2
AUX_BASIS	rimp2-cc-pvtz
SOLVENT_METHOD	PCM
PURECART	11111
SYMMETRY	false
MEM_TOTAL	110000
SCF_CONVERGENCE = 6
THRESH=10
$end

$solvent
dielectric 4.90
$end
--------------------------------------------------------------

             Standard Nuclear Orientation (Angstroms)
    I     Atom           X                Y                Z
 ----------------------------------------------------------------
    1      C      -0.0019460000    -0.5763090000     0.0105420000
    2      C      -0.0019460000     0.2872910000     1.1099420000
    3      C      -0.0018460000     1.6711910000     0.7872420000
    4      H      -0.0019460000    -0.0815090000     2.1466420000
    5      C      -0.0018460000     1.8918910000    -0.6019580000
    6      S      -0.0019460000     0.3660910000    -1.4762580000
    7      C      -0.0018460000     2.7589910000     1.8251420000
    8      H      -0.0018460000     2.3332910000     2.8472420000
    9      H      -0.8942460000     3.4132910000     1.7367420000
   10      H       0.8905540000     3.4131910000     1.7367420000
   11      C      -0.0019460000    -2.0170090000     0.0105420000
   12      H       0.5379540000    -2.0172090000     0.9459420000
   13      H       0.7075540000    -2.7208090000    -0.3989580000
   14      H      -0.8221460000    -2.5359090000     0.4841420000
   15      H      -0.0018460000     2.8410910000    -1.1510580000
 ----------------------------------------------------------------

   10    -629.4241947104      5.34e-07  Convergence criterion met
 Total energy in the final basis set =     -629.4241947104
        RIMP2         total energy =      -630.6018379224 a.u.

                    Orbital Energies (a.u.)
 --------------------------------------------------------------

 Alpha MOs
 -- Occupied --
-91.9758 -11.2803 -11.2542 -11.2472 -11.2311 -11.2272 -11.2175  -8.9758
 -6.6568  -6.6562  -6.6557  -1.1606  -1.0544  -0.9994  -0.9397  -0.8842
 -0.7421  -0.7225  -0.6485  -0.5919  -0.5763  -0.5678  -0.5589  -0.5426
 -0.5098  -0.4865  -0.4672  -0.4426  -0.3373  -0.2992

          Ground-State Mulliken Net Atomic Charges

     Atom                 Charge (a.u.)
  ----------------------------------------
      1 C                     0.067287
      2 C                    -0.272690
      3 C                     0.032421
      4 H                     0.177129
      5 C                    -0.259847
      6 S                    -0.006424
      7 C                    -0.274355
      8 H                     0.101123
      9 H                     0.107328
     10 H                     0.107164
     11 C                    -0.383370
     12 H                     0.127964
     13 H                     0.155283
     14 H                     0.128501
     15 H                     0.192486
  ----------------------------------------
  Sum of atomic charges =     0.000000

                    Cartesian Multipole Moments
 -----------------------------------------------------------------
    Charge (ESU x 10^10)
                -0.0000
    Dipole Moment (Debye)
         X       0.3273      Y      -0.2794      Z       2.0629
       Tot       2.1073
    Quadrupole Moments (Debye-Ang)
        XX     -53.8515     XY      -0.8998     YY     -42.0976
        XZ      -0.2694     YZ      -0.8460     ZZ     -48.8577

 Total job time:  157.13s(wall), 154.78s(cpu)
        *  Thank you very much for using Q-Chem.  Have a nice day.  *
