 Q-Chem 5.4, Q-Chem, Inc., Pleasanton, CA (2021)
 Q-Chem 5.4.0 for Intel X86 EM64T Linux

User input:
--------------------------------------------------------------
$molecule
0 1
C	-0.583556	-0.237129	0.012109
C	0.164344	0.194671	1.111509
C	1.362844	0.886571	0.788809
H	-0.155056	0.010271	2.148209
C	1.553944	0.996871	-0.600391
S	0.232644	0.234071	-1.474691
C	2.304944	1.430471	1.826709
H	1.936244	1.217571	2.848809
H	2.425344	2.530371	1.738309
H	3.317744	0.984671	1.738309
C	-0.583556	-1.677829	0.012109
H	-1.518956	-1.677529	0.552009
H	-0.993056	-2.381629	-0.697391
H	-0.109956	-2.196729	0.832309
H	2.376044	1.471471	-1.149491
$end

$rem
JOBTYPE		SP
EXCHANGE	HF
CORRELATION	pRIMP2
BASIS		cc-pvtz
METHOD		rimp2
AUX_BASIS	rimp2-cc-pvtz
SOLVENT_METHOD	PCM
PURECART	11111
SYMMETRY	false
MEM_TOTAL	110000
SCF_CONVERGENCE = 6
THRESH=10
$end

$solvent
dielectric 4.90
$end
--------------------------------------------------------------

             Standard Nuclear Orientation (Angstroms)
    I     Atom           X                Y                Z
 ----------------------------------------------------------------
    1      C      -0.5835560000    -0.2371290000     0.0121090000
    2      C       0.1643440000     0.1946710000     1.1115090000
    3      C       1.3628440000     0.8865710000     0.7888090000
    4      H      -0.1550560000     0.0102710000     2.1482090000
    5      C       1.5539440000     0.9968710000    -0.6003910000
    6      S       0.2326440000     0.2340710000    -1.4746910000
    7      C       2.3049440000     1.4304710000     1.8267090000
    8      H       1.9362440000     1.2175710000     2.8488090000
    9      H       2.4253440000     2.5303710000     1.7383090000
   10      H       3.3177440000     0.9846710000     1.7383090000
   11      C      -0.5835560000    -1.6778290000     0.0121090000
   12      H      -1.5189560000    -1.6775290000     0.5520090000
   13      H      -0.9930560000    -2.3816290000    -0.6973910000
   14      H      -0.1099560000    -2.1967290000     0.8323090000
   15      H       2.3760440000     1.4714710000    -1.1494910000
 ----------------------------------------------------------------

   11    -629.3418911999      5.93e-07  Convergence criterion met
 Total energy in the final basis set =     -629.3418911999
        RIMP2         total energy =      -630.5347968423 a.u.

                    Orbital Energies (a.u.)
 --------------------------------------------------------------

 Alpha MOs
 -- Occupied --
-91.9708 -11.2804 -11.2531 -11.2496 -11.2436 -11.2291 -11.2060  -8.9720
 -6.6528  -6.6517  -6.6516  -1.1723  -1.0553  -0.9993  -0.9363  -0.8829
 -0.7485  -0.7313  -0.6419  -0.5864  -0.5847  -0.5652  -0.5536  -0.5431
 -0.5182  -0.4907  -0.4598  -0.4151  -0.3352  -0.2889

          Ground-State Mulliken Net Atomic Charges

     Atom                 Charge (a.u.)
  ----------------------------------------
      1 C                    -0.092604
      2 C                    -0.142075
      3 C                    -0.014457
      4 H                     0.185381
      5 C                    -0.183822
      6 S                     0.014026
      7 C                    -0.268035
      8 H                     0.101898
      9 H                     0.106788
     10 H                     0.104998
     11 C                    -0.400003
     12 H                     0.121246
     13 H                     0.145187
     14 H                     0.126102
     15 H                     0.195369
  ----------------------------------------
  Sum of atomic charges =     0.000000

                    Cartesian Multipole Moments
 -----------------------------------------------------------------
    Charge (ESU x 10^10)
                -0.0000
    Dipole Moment (Debye)
         X       1.8676      Y       0.0506      Z       2.0374
       Tot       2.7643
    Quadrupole Moments (Debye-Ang)
        XX     -47.6483     XY       5.3332     YY     -50.0645
        XZ      -0.0213     YZ      -0.2015     ZZ     -47.7268

 Total job time:  175.15s(wall), 174.51s(cpu)
        *  Thank you very much for using Q-Chem.  Have a nice day.  *
