 Q-Chem 5.4, Q-Chem, Inc., Pleasanton, CA (2021)
 Q-Chem 5.4.0 for Intel X86 EM64T Linux

User input:
--------------------------------------------------------------
$molecule
0 1
C	-0.063634	-0.573729	0.013103
C	0.011666	0.286571	1.112503
C	0.132266	1.665271	0.789803
H	-0.020434	-0.080829	2.149203
C	0.151566	1.885071	-0.599397
S	0.018566	0.365071	-1.473697
C	0.227166	2.748871	1.827703
H	0.190066	2.324771	2.849803
H	-0.604834	3.478371	1.739303
H	1.173166	3.322871	1.739303
C	-0.063634	-2.014429	0.013103
H	0.871566	-2.014129	0.553203
H	-0.473234	-2.718229	0.722503
H	0.409966	-2.533329	-0.807097
H	0.234266	2.830671	-1.148497
$end

$rem
JOBTYPE		SP
EXCHANGE	HF
CORRELATION	pRIMP2
BASIS		cc-pvtz
METHOD		rimp2
AUX_BASIS	rimp2-cc-pvtz
SOLVENT_METHOD	PCM
PURECART	11111
SYMMETRY	false
MEM_TOTAL	110000
SCF_CONVERGENCE = 6
THRESH=10
$end

$solvent
dielectric 4.90
$end
--------------------------------------------------------------

             Standard Nuclear Orientation (Angstroms)
    I     Atom           X                Y                Z
 ----------------------------------------------------------------
    1      C      -0.0636340000    -0.5737290000     0.0131030000
    2      C       0.0116660000     0.2865710000     1.1125030000
    3      C       0.1322660000     1.6652710000     0.7898030000
    4      H      -0.0204340000    -0.0808290000     2.1492030000
    5      C       0.1515660000     1.8850710000    -0.5993970000
    6      S       0.0185660000     0.3650710000    -1.4736970000
    7      C       0.2271660000     2.7488710000     1.8277030000
    8      H       0.1900660000     2.3247710000     2.8498030000
    9      H      -0.6048340000     3.4783710000     1.7393030000
   10      H       1.1731660000     3.3228710000     1.7393030000
   11      C      -0.0636340000    -2.0144290000     0.0131030000
   12      H       0.8715660000    -2.0141290000     0.5532030000
   13      H      -0.4732340000    -2.7182290000     0.7225030000
   14      H       0.4099660000    -2.5333290000    -0.8070970000
   15      H       0.2342660000     2.8306710000    -1.1484970000
 ----------------------------------------------------------------

   10    -629.4235479644      6.41e-07  Convergence criterion met
 Total energy in the final basis set =     -629.4235479644
        RIMP2         total energy =      -630.5998500653 a.u.

                    Orbital Energies (a.u.)
 --------------------------------------------------------------

 Alpha MOs
 -- Occupied --
-91.9789 -11.2842 -11.2497 -11.2472 -11.2266 -11.2242 -11.2204  -8.9785
 -6.6595  -6.6589  -6.6583  -1.1603  -1.0556  -0.9981  -0.9408  -0.8831
 -0.7427  -0.7200  -0.6497  -0.5882  -0.5733  -0.5675  -0.5582  -0.5443
 -0.5077  -0.4909  -0.4665  -0.4538  -0.3375  -0.2912

          Ground-State Mulliken Net Atomic Charges

     Atom                 Charge (a.u.)
  ----------------------------------------
      1 C                     0.068543
      2 C                    -0.295103
      3 C                     0.043728
      4 H                     0.174939
      5 C                    -0.275639
      6 S                     0.001031
      7 C                    -0.274750
      8 H                     0.101230
      9 H                     0.107263
     10 H                     0.107172
     11 C                    -0.386657
     12 H                     0.142448
     13 H                     0.156865
     14 H                     0.136405
     15 H                     0.192524
  ----------------------------------------
  Sum of atomic charges =     0.000000

                    Cartesian Multipole Moments
 -----------------------------------------------------------------
    Charge (ESU x 10^10)
                -0.0000
    Dipole Moment (Debye)
         X       0.7349      Y      -0.6138      Z       1.7489
       Tot       1.9939
    Quadrupole Moments (Debye-Ang)
        XX     -54.2355     XY      -0.5554     YY     -42.0139
        XZ      -0.2057     YZ      -0.5253     ZZ     -48.6066

 Total job time:  161.01s(wall), 159.39s(cpu)
        *  Thank you very much for using Q-Chem.  Have a nice day.  *
