 Q-Chem 5.4, Q-Chem, Inc., Pleasanton, CA (2021)
 Q-Chem 5.4.0 for Intel X86 EM64T Linux

User input:
--------------------------------------------------------------
$molecule
0 1
C	-0.236073	-0.535364	0.014458
C	0.059327	0.276136	1.113858
C	0.532627	1.576536	0.791158
H	-0.066773	-0.070364	2.150558
C	0.608127	1.783936	-0.598042
S	0.086227	0.350236	-1.472342
C	0.904727	2.598736	1.829058
H	0.759127	2.198736	2.851158
H	0.289927	3.518736	1.740658
H	1.967127	2.908336	1.740658
C	-0.110473	-1.970564	0.014458
H	-1.186473	-2.064364	0.014358
H	-0.049073	-2.671664	-0.804742
H	-0.065273	-2.487564	0.961558
H	0.932827	2.675936	-1.147142
$end

$rem
JOBTYPE		SP
EXCHANGE	HF
CORRELATION	pRIMP2
BASIS		cc-pvtz
METHOD		rimp2
AUX_BASIS	rimp2-cc-pvtz
SOLVENT_METHOD	PCM
PURECART	11111
SYMMETRY	false
MEM_TOTAL	110000
SCF_CONVERGENCE = 6
THRESH=10
$end

$solvent
dielectric 4.90
$end
--------------------------------------------------------------

             Standard Nuclear Orientation (Angstroms)
    I     Atom           X                Y                Z
 ----------------------------------------------------------------
    1      C      -0.2360730000    -0.5353640000     0.0144580000
    2      C       0.0593270000     0.2761360000     1.1138580000
    3      C       0.5326270000     1.5765360000     0.7911580000
    4      H      -0.0667730000    -0.0703640000     2.1505580000
    5      C       0.6081270000     1.7839360000    -0.5980420000
    6      S       0.0862270000     0.3502360000    -1.4723420000
    7      C       0.9047270000     2.5987360000     1.8290580000
    8      H       0.7591270000     2.1987360000     2.8511580000
    9      H       0.2899270000     3.5187360000     1.7406580000
   10      H       1.9671270000     2.9083360000     1.7406580000
   11      C      -0.1104730000    -1.9705640000     0.0144580000
   12      H      -1.1864730000    -2.0643640000     0.0143580000
   13      H      -0.0490730000    -2.6716640000    -0.8047420000
   14      H      -0.0652730000    -2.4875640000     0.9615580000
   15      H       0.9328270000     2.6759360000    -1.1471420000
 ----------------------------------------------------------------

   10    -629.4067070916      5.98e-07  Convergence criterion met
 Total energy in the final basis set =     -629.4067070916
        RIMP2         total energy =      -630.5865412112 a.u.

                    Orbital Energies (a.u.)
 --------------------------------------------------------------

 Alpha MOs
 -- Occupied --
-91.9764 -11.2791 -11.2530 -11.2472 -11.2277 -11.2267 -11.2175  -8.9765
 -6.6574  -6.6568  -6.6563  -1.1610  -1.0550  -0.9970  -0.9417  -0.8828
 -0.7442  -0.7200  -0.6455  -0.5874  -0.5740  -0.5715  -0.5523  -0.5449
 -0.5108  -0.4937  -0.4577  -0.4529  -0.3377  -0.2869

          Ground-State Mulliken Net Atomic Charges

     Atom                 Charge (a.u.)
  ----------------------------------------
      1 C                     0.034147
      2 C                    -0.288795
      3 C                     0.050150
      4 H                     0.178000
      5 C                    -0.270691
      6 S                     0.001509
      7 C                    -0.270850
      8 H                     0.101366
      9 H                     0.107120
     10 H                     0.106733
     11 C                    -0.378092
     12 H                     0.134560
     13 H                     0.162802
     14 H                     0.139466
     15 H                     0.192576
  ----------------------------------------
  Sum of atomic charges =     0.000000

                    Cartesian Multipole Moments
 -----------------------------------------------------------------
    Charge (ESU x 10^10)
                -0.0000
    Dipole Moment (Debye)
         X      -0.1249      Y      -0.5424      Z       1.4705
       Tot       1.5723
    Quadrupole Moments (Debye-Ang)
        XX     -53.3777     XY       4.0523     YY     -42.8818
        XZ       0.0651     YZ       0.4236     ZZ     -48.4317

 Total job time:  159.53s(wall), 155.86s(cpu)
        *  Thank you very much for using Q-Chem.  Have a nice day.  *
