 Q-Chem 5.4, Q-Chem, Inc., Pleasanton, CA (2021)
 Q-Chem 5.4.0 for Intel X86 EM64T Linux

User input:
--------------------------------------------------------------
$molecule
0 1
C	-0.180064	-0.553189	0.016960
C	0.043436	0.281011	1.116360
C	0.401636	1.617711	0.793660
H	-0.051964	-0.075289	2.153060
C	0.458836	1.830811	-0.595540
S	0.063836	0.357111	-1.469840
C	0.683236	2.668411	1.831560
H	0.573036	2.257311	2.853660
H	-0.009364	3.531411	1.743160
H	1.714536	3.069411	1.743160
C	-0.180064	-1.993889	0.016960
H	0.755336	-1.994089	-0.522940
H	-0.589564	-2.697689	-0.692540
H	0.293536	-2.512789	0.837160
H	0.704536	2.747711	-1.144640
$end

$rem
JOBTYPE		SP
EXCHANGE	HF
CORRELATION	pRIMP2
BASIS		cc-pvtz
METHOD		rimp2
AUX_BASIS	rimp2-cc-pvtz
SOLVENT_METHOD	PCM
PURECART	11111
SYMMETRY	false
MEM_TOTAL	110000
SCF_CONVERGENCE = 6
THRESH=10
$end

$solvent
dielectric 4.90
$end
--------------------------------------------------------------

             Standard Nuclear Orientation (Angstroms)
    I     Atom           X                Y                Z
 ----------------------------------------------------------------
    1      C      -0.1800640000    -0.5531890000     0.0169600000
    2      C       0.0434360000     0.2810110000     1.1163600000
    3      C       0.4016360000     1.6177110000     0.7936600000
    4      H      -0.0519640000    -0.0752890000     2.1530600000
    5      C       0.4588360000     1.8308110000    -0.5955400000
    6      S       0.0638360000     0.3571110000    -1.4698400000
    7      C       0.6832360000     2.6684110000     1.8315600000
    8      H       0.5730360000     2.2573110000     2.8536600000
    9      H      -0.0093640000     3.5314110000     1.7431600000
   10      H       1.7145360000     3.0694110000     1.7431600000
   11      C      -0.1800640000    -1.9938890000     0.0169600000
   12      H       0.7553360000    -1.9940890000    -0.5229400000
   13      H      -0.5895640000    -2.6976890000    -0.6925400000
   14      H       0.2935360000    -2.5127890000     0.8371600000
   15      H       0.7045360000     2.7477110000    -1.1446400000
 ----------------------------------------------------------------

   10    -629.4213841252      6.81e-07  Convergence criterion met
 Total energy in the final basis set =     -629.4213841252
        RIMP2         total energy =      -630.5975212253 a.u.

                    Orbital Energies (a.u.)
 --------------------------------------------------------------

 Alpha MOs
 -- Occupied --
-91.9765 -11.2827 -11.2525 -11.2470 -11.2267 -11.2265 -11.2207  -8.9767
 -6.6577  -6.6571  -6.6565  -1.1616  -1.0564  -0.9961  -0.9435  -0.8818
 -0.7458  -0.7189  -0.6474  -0.5904  -0.5776  -0.5670  -0.5502  -0.5479
 -0.5074  -0.4931  -0.4649  -0.4533  -0.3396  -0.2917

          Ground-State Mulliken Net Atomic Charges

     Atom                 Charge (a.u.)
  ----------------------------------------
      1 C                     0.063995
      2 C                    -0.318458
      3 C                     0.059013
      4 H                     0.179561
      5 C                    -0.271349
      6 S                    -0.005805
      7 C                    -0.272030
      8 H                     0.101378
      9 H                     0.107502
     10 H                     0.107212
     11 C                    -0.373929
     12 H                     0.137626
     13 H                     0.154103
     14 H                     0.138333
     15 H                     0.192847
  ----------------------------------------
  Sum of atomic charges =     0.000000

                    Cartesian Multipole Moments
 -----------------------------------------------------------------
    Charge (ESU x 10^10)
                -0.0000
    Dipole Moment (Debye)
         X       0.9432      Y      -0.5303      Z       1.1280
       Tot       1.5630
    Quadrupole Moments (Debye-Ang)
        XX     -53.8980     XY       0.9987     YY     -42.4621
        XZ       0.3875     YZ       1.1287     ZZ     -48.6685

 Total job time:  156.15s(wall), 154.86s(cpu)
        *  Thank you very much for using Q-Chem.  Have a nice day.  *
