 Q-Chem 5.4, Q-Chem, Inc., Pleasanton, CA (2021)
 Q-Chem 5.4.0 for Intel X86 EM64T Linux

User input:
--------------------------------------------------------------
$molecule
0 1
C	-0.436317	-0.417594	0.010154
C	0.118783	0.243906	1.109554
C	1.008383	1.304106	0.786854
H	-0.118217	-0.038594	2.146254
C	1.150283	1.473106	-0.602346
S	0.169483	0.304306	-1.476646
C	1.707583	2.137306	1.824754
H	1.433983	1.811306	2.846854
H	1.444583	3.212106	1.736354
H	2.811783	2.064906	1.736354
C	-0.436317	-1.858294	0.010154
H	-0.248917	-1.858494	1.073754
H	0.370483	-2.562094	-0.132046
H	-1.369017	-2.377194	0.174654
H	1.760383	2.200206	-1.151446
$end

$rem
JOBTYPE		SP
EXCHANGE	HF
CORRELATION	pRIMP2
BASIS		cc-pvtz
METHOD		rimp2
AUX_BASIS	rimp2-cc-pvtz
SOLVENT_METHOD	PCM
PURECART	11111
SYMMETRY	false
MEM_TOTAL	110000
SCF_CONVERGENCE = 6
THRESH=10
$end

$solvent
dielectric 4.90
$end
--------------------------------------------------------------

             Standard Nuclear Orientation (Angstroms)
    I     Atom           X                Y                Z
 ----------------------------------------------------------------
    1      C      -0.4363170000    -0.4175940000     0.0101540000
    2      C       0.1187830000     0.2439060000     1.1095540000
    3      C       1.0083830000     1.3041060000     0.7868540000
    4      H      -0.1182170000    -0.0385940000     2.1462540000
    5      C       1.1502830000     1.4731060000    -0.6023460000
    6      S       0.1694830000     0.3043060000    -1.4766460000
    7      C       1.7075830000     2.1373060000     1.8247540000
    8      H       1.4339830000     1.8113060000     2.8468540000
    9      H       1.4445830000     3.2121060000     1.7363540000
   10      H       2.8117830000     2.0649060000     1.7363540000
   11      C      -0.4363170000    -1.8582940000     0.0101540000
   12      H      -0.2489170000    -1.8584940000     1.0737540000
   13      H       0.3704830000    -2.5620940000    -0.1320460000
   14      H      -1.3690170000    -2.3771940000     0.1746540000
   15      H       1.7603830000     2.2002060000    -1.1514460000
 ----------------------------------------------------------------

   10    -629.3875650968      6.51e-07  Convergence criterion met
 Total energy in the final basis set =     -629.3875650968
        RIMP2         total energy =      -630.5731784023 a.u.

                    Orbital Energies (a.u.)
 --------------------------------------------------------------

 Alpha MOs
 -- Occupied --
-91.9745 -11.2678 -11.2628 -11.2478 -11.2419 -11.2283 -11.2098  -8.9748
 -6.6557  -6.6550  -6.6546  -1.1664  -1.0541  -1.0000  -0.9363  -0.8837
 -0.7441  -0.7288  -0.6456  -0.5880  -0.5810  -0.5709  -0.5550  -0.5421
 -0.5162  -0.4697  -0.4667  -0.4344  -0.3344  -0.3039

          Ground-State Mulliken Net Atomic Charges

     Atom                 Charge (a.u.)
  ----------------------------------------
      1 C                    -0.020925
      2 C                    -0.215784
      3 C                     0.020363
      4 H                     0.176551
      5 C                    -0.225607
      6 S                     0.002151
      7 C                    -0.269526
      8 H                     0.101325
      9 H                     0.106978
     10 H                     0.105867
     11 C                    -0.360256
     12 H                     0.119606
     13 H                     0.152828
     14 H                     0.112314
     15 H                     0.194114
  ----------------------------------------
  Sum of atomic charges =     0.000000

                    Cartesian Multipole Moments
 -----------------------------------------------------------------
    Charge (ESU x 10^10)
                -0.0000
    Dipole Moment (Debye)
         X       1.4541      Y       0.2082      Z       2.2156
       Tot       2.6584
    Quadrupole Moments (Debye-Ang)
        XX     -50.5398     XY       3.9739     YY     -46.6102
        XZ      -0.3659     YZ      -1.0511     ZZ     -48.5394

 Total job time:  160.42s(wall), 157.57s(cpu)
        *  Thank you very much for using Q-Chem.  Have a nice day.  *
