 Q-Chem 5.4, Q-Chem, Inc., Pleasanton, CA (2021)
 Q-Chem 5.4.0 for Intel X86 EM64T Linux

User input:
--------------------------------------------------------------
$molecule
0 1
C	-0.437450	-0.417594	0.019710
C	0.117650	0.243906	1.119110
C	1.007250	1.304106	0.796410
H	-0.119350	-0.038594	2.155810
C	1.149150	1.473106	-0.592790
S	0.168350	0.304306	-1.467090
C	1.706450	2.137306	1.834310
H	1.432850	1.811306	2.856410
H	1.443450	3.212106	1.745910
H	2.810650	2.064906	1.745910
C	-0.437450	-1.858294	0.019710
H	-0.249750	-1.858494	-1.043890
H	-1.244150	-2.562094	-0.122590
H	0.495250	-2.377194	0.184210
H	1.759250	2.200206	-1.141890
$end

$rem
JOBTYPE		SP
EXCHANGE	HF
CORRELATION	pRIMP2
BASIS		cc-pvtz
METHOD		rimp2
AUX_BASIS	rimp2-cc-pvtz
SOLVENT_METHOD	PCM
PURECART	11111
SYMMETRY	false
MEM_TOTAL	110000
SCF_CONVERGENCE = 6
THRESH=10
$end

$solvent
dielectric 4.90
$end
--------------------------------------------------------------

             Standard Nuclear Orientation (Angstroms)
    I     Atom           X                Y                Z
 ----------------------------------------------------------------
    1      C      -0.4374500000    -0.4175940000     0.0197100000
    2      C       0.1176500000     0.2439060000     1.1191100000
    3      C       1.0072500000     1.3041060000     0.7964100000
    4      H      -0.1193500000    -0.0385940000     2.1558100000
    5      C       1.1491500000     1.4731060000    -0.5927900000
    6      S       0.1683500000     0.3043060000    -1.4670900000
    7      C       1.7064500000     2.1373060000     1.8343100000
    8      H       1.4328500000     1.8113060000     2.8564100000
    9      H       1.4434500000     3.2121060000     1.7459100000
   10      H       2.8106500000     2.0649060000     1.7459100000
   11      C      -0.4374500000    -1.8582940000     0.0197100000
   12      H      -0.2497500000    -1.8584940000    -1.0438900000
   13      H      -1.2441500000    -2.5620940000    -0.1225900000
   14      H       0.4952500000    -2.3771940000     0.1842100000
   15      H       1.7592500000     2.2002060000    -1.1418900000
 ----------------------------------------------------------------

   10    -629.3866842590      5.66e-07  Convergence criterion met
 Total energy in the final basis set =     -629.3866842590
        RIMP2         total energy =      -630.5714366767 a.u.

                    Orbital Energies (a.u.)
 --------------------------------------------------------------

 Alpha MOs
 -- Occupied --
-91.9766 -11.2678 -11.2621 -11.2473 -11.2386 -11.2276 -11.2107  -8.9772
 -6.6581  -6.6574  -6.6569  -1.1666  -1.0559  -0.9942  -0.9449  -0.8796
 -0.7511  -0.7222  -0.6450  -0.5910  -0.5778  -0.5658  -0.5516  -0.5480
 -0.5133  -0.4744  -0.4643  -0.4401  -0.3351  -0.3035

          Ground-State Mulliken Net Atomic Charges

     Atom                 Charge (a.u.)
  ----------------------------------------
      1 C                    -0.015020
      2 C                    -0.222239
      3 C                     0.034046
      4 H                     0.178492
      5 C                    -0.233540
      6 S                    -0.000759
      7 C                    -0.270118
      8 H                     0.101930
      9 H                     0.107097
     10 H                     0.105315
     11 C                    -0.366347
     12 H                     0.120442
     13 H                     0.133639
     14 H                     0.130752
     15 H                     0.196312
  ----------------------------------------
  Sum of atomic charges =     0.000000

                    Cartesian Multipole Moments
 -----------------------------------------------------------------
    Charge (ESU x 10^10)
                -0.0000
    Dipole Moment (Debye)
         X       1.4644      Y       0.1990      Z       0.9883
       Tot       1.7779
    Quadrupole Moments (Debye-Ang)
        XX     -50.5630     XY       4.3076     YY     -46.5750
        XZ       0.2992     YZ       1.2902     ZZ     -48.4118

 Total job time:  159.12s(wall), 157.11s(cpu)
        *  Thank you very much for using Q-Chem.  Have a nice day.  *
