 Q-Chem 5.4, Q-Chem, Inc., Pleasanton, CA (2021)
 Q-Chem 5.4.0 for Intel X86 EM64T Linux

User input:
--------------------------------------------------------------
$molecule
0 1
C	-0.436615	-0.417597	0.010180
C	0.118485	0.243903	1.109580
C	1.008085	1.304103	0.786880
H	-0.118515	-0.038597	2.146280
C	1.149985	1.473103	-0.602320
S	0.169185	0.304303	-1.476620
C	1.707285	2.137303	1.824780
H	1.433685	1.811303	2.846880
H	1.444285	3.212103	1.736380
H	2.811485	2.064903	1.736380
C	-0.436615	-1.858297	0.010180
H	-0.436715	-1.857997	1.090180
H	-1.255815	-2.562097	0.010080
H	0.510485	-2.377197	0.010180
H	1.760085	2.200203	-1.151420
$end

$rem
JOBTYPE		SP
EXCHANGE	HF
CORRELATION	pRIMP2
BASIS		cc-pvtz
METHOD		rimp2
AUX_BASIS	rimp2-cc-pvtz
SOLVENT_METHOD	PCM
PURECART	11111
SYMMETRY	false
MEM_TOTAL	110000
SCF_CONVERGENCE = 6
THRESH=10
$end

$solvent
dielectric 4.90
$end
--------------------------------------------------------------

             Standard Nuclear Orientation (Angstroms)
    I     Atom           X                Y                Z
 ----------------------------------------------------------------
    1      C      -0.4366150000    -0.4175970000     0.0101800000
    2      C       0.1184850000     0.2439030000     1.1095800000
    3      C       1.0080850000     1.3041030000     0.7868800000
    4      H      -0.1185150000    -0.0385970000     2.1462800000
    5      C       1.1499850000     1.4731030000    -0.6023200000
    6      S       0.1691850000     0.3043030000    -1.4766200000
    7      C       1.7072850000     2.1373030000     1.8247800000
    8      H       1.4336850000     1.8113030000     2.8468800000
    9      H       1.4442850000     3.2121030000     1.7363800000
   10      H       2.8114850000     2.0649030000     1.7363800000
   11      C      -0.4366150000    -1.8582970000     0.0101800000
   12      H      -0.4367150000    -1.8579970000     1.0901800000
   13      H      -1.2558150000    -2.5620970000     0.0100800000
   14      H       0.5104850000    -2.3771970000     0.0101800000
   15      H       1.7600850000     2.2002030000    -1.1514200000
 ----------------------------------------------------------------

   10    -629.3927177013      5.28e-07  Convergence criterion met
 Total energy in the final basis set =     -629.3927177013
        RIMP2         total energy =      -630.5775001292 a.u.

                    Orbital Energies (a.u.)
 --------------------------------------------------------------

 Alpha MOs
 -- Occupied --
-91.9734 -11.2678 -11.2643 -11.2479 -11.2420 -11.2283 -11.2116  -8.9739
 -6.6548  -6.6541  -6.6537  -1.1665  -1.0545  -0.9999  -0.9365  -0.8837
 -0.7441  -0.7287  -0.6449  -0.5920  -0.5806  -0.5670  -0.5566  -0.5421
 -0.5147  -0.4743  -0.4669  -0.4322  -0.3358  -0.3050

          Ground-State Mulliken Net Atomic Charges

     Atom                 Charge (a.u.)
  ----------------------------------------
      1 C                    -0.012582
      2 C                    -0.224318
      3 C                     0.026514
      4 H                     0.176345
      5 C                    -0.227925
      6 S                    -0.000030
      7 C                    -0.268994
      8 H                     0.101340
      9 H                     0.107033
     10 H                     0.106133
     11 C                    -0.356205
     12 H                     0.113568
     13 H                     0.131962
     14 H                     0.132803
     15 H                     0.194356
  ----------------------------------------
  Sum of atomic charges =     0.000000

                    Cartesian Multipole Moments
 -----------------------------------------------------------------
    Charge (ESU x 10^10)
                -0.0000
    Dipole Moment (Debye)
         X       1.3473      Y       0.1706      Z       2.2264
       Tot       2.6079
    Quadrupole Moments (Debye-Ang)
        XX     -50.3944     XY       4.5319     YY     -46.5097
        XZ      -0.2654     YZ      -1.0779     ZZ     -48.6280

 Total job time:  159.06s(wall), 157.08s(cpu)
        *  Thank you very much for using Q-Chem.  Have a nice day.  *
