 Q-Chem 5.4, Q-Chem, Inc., Pleasanton, CA (2021)
 Q-Chem 5.4.0 for Intel X86 EM64T Linux

User input:
--------------------------------------------------------------
$molecule
0 1
C	-0.433117	-0.417594	0.011118
C	0.121983	0.243906	1.110518
C	1.011583	1.304106	0.787818
H	-0.115017	-0.038594	2.147218
C	1.153483	1.473106	-0.601382
S	0.172683	0.304306	-1.475682
C	1.710783	2.137306	1.825718
H	1.437183	1.811306	2.847818
H	1.447783	3.212106	1.737318
H	2.814983	2.064906	1.737318
C	-0.433117	-1.858294	0.011118
H	-0.973217	-1.858494	0.946318
H	0.276283	-2.562094	0.420718
H	-1.253317	-2.377194	-0.462482
H	1.763583	2.200206	-1.150482
$end

$rem
JOBTYPE		SP
EXCHANGE	HF
CORRELATION	pRIMP2
BASIS		cc-pvtz
METHOD		rimp2
AUX_BASIS	rimp2-cc-pvtz
SOLVENT_METHOD	PCM
PURECART	11111
SYMMETRY	false
MEM_TOTAL	110000
SCF_CONVERGENCE = 6
THRESH=10
$end

$solvent
dielectric 4.90
$end
--------------------------------------------------------------

             Standard Nuclear Orientation (Angstroms)
    I     Atom           X                Y                Z
 ----------------------------------------------------------------
    1      C      -0.4331170000    -0.4175940000     0.0111180000
    2      C       0.1219830000     0.2439060000     1.1105180000
    3      C       1.0115830000     1.3041060000     0.7878180000
    4      H      -0.1150170000    -0.0385940000     2.1472180000
    5      C       1.1534830000     1.4731060000    -0.6013820000
    6      S       0.1726830000     0.3043060000    -1.4756820000
    7      C       1.7107830000     2.1373060000     1.8257180000
    8      H       1.4371830000     1.8113060000     2.8478180000
    9      H       1.4477830000     3.2121060000     1.7373180000
   10      H       2.8149830000     2.0649060000     1.7373180000
   11      C      -0.4331170000    -1.8582940000     0.0111180000
   12      H      -0.9732170000    -1.8584940000     0.9463180000
   13      H       0.2762830000    -2.5620940000     0.4207180000
   14      H      -1.2533170000    -2.3771940000    -0.4624820000
   15      H       1.7635830000     2.2002060000    -1.1504820000
 ----------------------------------------------------------------

   10    -629.3917659968      6.64e-07  Convergence criterion met
 Total energy in the final basis set =     -629.3917659968
        RIMP2         total energy =      -630.5767677872 a.u.

                    Orbital Energies (a.u.)
 --------------------------------------------------------------

 Alpha MOs
 -- Occupied --
-91.9726 -11.2684 -11.2619 -11.2484 -11.2426 -11.2282 -11.2116  -8.9732
 -6.6541  -6.6534  -6.6530  -1.1653  -1.0536  -0.9991  -0.9382  -0.8841
 -0.7446  -0.7272  -0.6466  -0.5855  -0.5809  -0.5675  -0.5564  -0.5423
 -0.5162  -0.4816  -0.4624  -0.4300  -0.3375  -0.3012

          Ground-State Mulliken Net Atomic Charges

     Atom                 Charge (a.u.)
  ----------------------------------------
      1 C                    -0.024388
      2 C                    -0.217153
      3 C                     0.018209
      4 H                     0.179626
      5 C                    -0.223310
      6 S                     0.000315
      7 C                    -0.269386
      8 H                     0.101414
      9 H                     0.106880
     10 H                     0.106231
     11 C                    -0.364148
     12 H                     0.114102
     13 H                     0.152736
     14 H                     0.124452
     15 H                     0.194420
  ----------------------------------------
  Sum of atomic charges =     0.000000

                    Cartesian Multipole Moments
 -----------------------------------------------------------------
    Charge (ESU x 10^10)
                -0.0000
    Dipole Moment (Debye)
         X       1.0340      Y       0.2028      Z       2.1665
       Tot       2.4091
    Quadrupole Moments (Debye-Ang)
        XX     -50.2392     XY       5.0447     YY     -46.4219
        XZ       0.0611     YZ      -0.9969     ZZ     -48.5490

 Total job time:  157.56s(wall), 155.84s(cpu)
        *  Thank you very much for using Q-Chem.  Have a nice day.  *
