 Q-Chem 5.4, Q-Chem, Inc., Pleasanton, CA (2021)
 Q-Chem 5.4.0 for Intel X86 EM64T Linux

User input:
--------------------------------------------------------------
$molecule
0 1
C	-0.344055	-0.485421	0.014755
C	0.087745	0.262479	1.114155
C	0.779745	1.460979	0.791455
H	-0.096655	-0.056921	2.150855
C	0.890045	1.652079	-0.597745
S	0.127145	0.330679	-1.472045
C	1.323645	2.402979	1.829355
H	1.110845	2.034379	2.851455
H	0.877945	3.415779	1.740955
H	2.423645	2.523379	1.740955
C	-0.344055	-1.926121	0.014755
H	0.719545	-1.925821	0.202455
H	-0.486355	-2.629921	0.821455
H	-0.179555	-2.445021	-0.917945
H	1.364745	2.474079	-1.146845
$end

$rem
JOBTYPE		SP
EXCHANGE	HF
CORRELATION	pRIMP2
BASIS		cc-pvtz
METHOD		rimp2
AUX_BASIS	rimp2-cc-pvtz
SOLVENT_METHOD	PCM
PURECART	11111
SYMMETRY	false
MEM_TOTAL	110000
SCF_CONVERGENCE = 6
THRESH=10
$end

$solvent
dielectric 4.90
$end
--------------------------------------------------------------

   10    -629.4074038171      6.32e-07  Convergence criterion met
 Total energy in the final basis set =     -629.4074038171
        RIMP2         total energy =      -630.5868802495 a.u.
 Total job time:  158.43s(wall), 157.54s(cpu)
        *  Thank you very much for using Q-Chem.  Have a nice day.  *
 Q-Chem 5.4, Q-Chem, Inc., Pleasanton, CA (2021)
 Q-Chem 5.4.0 for Intel X86 EM64T Linux

User input:
--------------------------------------------------------------
$molecule
0 1
C	-0.344055	-0.485421	0.014755
C	0.087745	0.262479	1.114155
C	0.779745	1.460979	0.791455
H	-0.096655	-0.056921	2.150855
C	0.890045	1.652079	-0.597745
S	0.127145	0.330679	-1.472045
C	1.323645	2.402979	1.829355
H	1.110845	2.034379	2.851455
H	0.877945	3.415779	1.740955
H	2.423645	2.523379	1.740955
C	-0.344055	-1.926121	0.014755
H	0.719545	-1.925821	0.202455
H	-0.486355	-2.629921	0.821455
H	-0.179555	-2.445021	-0.917945
H	1.364745	2.474079	-1.146845
$end

$rem
JOBTYPE		SP
EXCHANGE	HF
CORRELATION	pRIMP2
BASIS		cc-pvtz
METHOD		rimp2
AUX_BASIS	rimp2-cc-pvtz
SOLVENT_METHOD	PCM
PURECART	11111
SYMMETRY	false
MEM_TOTAL	110000
SCF_CONVERGENCE = 6
THRESH=10
$end

$solvent
dielectric 4.90
$end
--------------------------------------------------------------

             Standard Nuclear Orientation (Angstroms)
    I     Atom           X                Y                Z
 ----------------------------------------------------------------
    1      C      -0.3440550000    -0.4854210000     0.0147550000
    2      C       0.0877450000     0.2624790000     1.1141550000
    3      C       0.7797450000     1.4609790000     0.7914550000
    4      H      -0.0966550000    -0.0569210000     2.1508550000
    5      C       0.8900450000     1.6520790000    -0.5977450000
    6      S       0.1271450000     0.3306790000    -1.4720450000
    7      C       1.3236450000     2.4029790000     1.8293550000
    8      H       1.1108450000     2.0343790000     2.8514550000
    9      H       0.8779450000     3.4157790000     1.7409550000
   10      H       2.4236450000     2.5233790000     1.7409550000
   11      C      -0.3440550000    -1.9261210000     0.0147550000
   12      H       0.7195450000    -1.9258210000     0.2024550000
   13      H      -0.4863550000    -2.6299210000     0.8214550000
   14      H      -0.1795550000    -2.4450210000    -0.9179450000
   15      H       1.3647450000     2.4740790000    -1.1468450000
 ----------------------------------------------------------------

   10    -629.4074038171      6.32e-07  Convergence criterion met
 Total energy in the final basis set =     -629.4074038171
        RIMP2         total energy =      -630.5868802495 a.u.

                    Orbital Energies (a.u.)
 --------------------------------------------------------------

 Alpha MOs
 -- Occupied --
-91.9789 -11.2811 -11.2533 -11.2480 -11.2269 -11.2246 -11.2204  -8.9788
 -6.6598  -6.6592  -6.6586  -1.1641  -1.0566  -0.9969  -0.9401  -0.8819
 -0.7447  -0.7208  -0.6483  -0.5869  -0.5775  -0.5665  -0.5548  -0.5458
 -0.5071  -0.4918  -0.4629  -0.4581  -0.3381  -0.2874

          Ground-State Mulliken Net Atomic Charges

     Atom                 Charge (a.u.)
  ----------------------------------------
      1 C                     0.036753
      2 C                    -0.290063
      3 C                     0.051688
      4 H                     0.173788
      5 C                    -0.275512
      6 S                     0.006611
      7 C                    -0.270888
      8 H                     0.101687
      9 H                     0.107696
     10 H                     0.106161
     11 C                    -0.378375
     12 H                     0.150548
     13 H                     0.153582
     14 H                     0.132985
     15 H                     0.193340
  ----------------------------------------
  Sum of atomic charges =     0.000000

                    Cartesian Multipole Moments
 -----------------------------------------------------------------
    Charge (ESU x 10^10)
                -0.0000
    Dipole Moment (Debye)
         X       1.3404      Y      -0.5972      Z       1.5453
       Tot       2.1310
    Quadrupole Moments (Debye-Ang)
        XX     -52.8340     XY       2.5855     YY     -44.3571
        XZ       0.0718     YZ      -0.2171     ZZ     -48.4263

 Total job time:  157.37s(wall), 156.10s(cpu)
        *  Thank you very much for using Q-Chem.  Have a nice day.  *
