 Q-Chem 5.4, Q-Chem, Inc., Pleasanton, CA (2021)
 Q-Chem 5.4.0 for Intel X86 EM64T Linux

User input:
--------------------------------------------------------------
$molecule
0 1
C	-0.120011	-0.566010	0.010669
C	0.029989	0.284490	1.110069
C	0.270289	1.647390	0.787369
H	-0.034111	-0.078710	2.146769
C	0.308689	1.864690	-0.601831
S	0.043689	0.362090	-1.476131
C	0.459189	2.718590	1.825269
H	0.385289	2.299390	2.847369
H	-0.306011	3.517890	1.736869
H	1.451689	3.207890	1.736869
C	-0.120011	-2.006710	0.010669
H	0.249289	-2.006410	1.025569
H	-0.889811	-2.710510	0.290769
H	0.769989	-2.525610	-0.313231
H	0.473489	2.799390	-1.150931
$end

$rem
JOBTYPE		SP
EXCHANGE	HF
CORRELATION	pRIMP2
BASIS		cc-pvtz
METHOD		rimp2
AUX_BASIS	rimp2-cc-pvtz
SOLVENT_METHOD	PCM
PURECART	11111
SYMMETRY	false
MEM_TOTAL	110000
SCF_CONVERGENCE = 6
THRESH=10
$end

$solvent
dielectric 4.90
$end
--------------------------------------------------------------

   10    -629.4225594488      5.03e-07  Convergence criterion met
 Total energy in the final basis set =     -629.4225594488
        RIMP2         total energy =      -630.6006494596 a.u.
 Total job time:  157.13s(wall), 155.57s(cpu)
        *  Thank you very much for using Q-Chem.  Have a nice day.  *
 Q-Chem 5.4, Q-Chem, Inc., Pleasanton, CA (2021)
 Q-Chem 5.4.0 for Intel X86 EM64T Linux

User input:
--------------------------------------------------------------
$molecule
0 1
C	-0.120011	-0.566010	0.010669
C	0.029989	0.284490	1.110069
C	0.270289	1.647390	0.787369
H	-0.034111	-0.078710	2.146769
C	0.308689	1.864690	-0.601831
S	0.043689	0.362090	-1.476131
C	0.459189	2.718590	1.825269
H	0.385289	2.299390	2.847369
H	-0.306011	3.517890	1.736869
H	1.451689	3.207890	1.736869
C	-0.120011	-2.006710	0.010669
H	0.249289	-2.006410	1.025569
H	-0.889811	-2.710510	0.290769
H	0.769989	-2.525610	-0.313231
H	0.473489	2.799390	-1.150931
$end

$rem
JOBTYPE		SP
EXCHANGE	HF
CORRELATION	pRIMP2
BASIS		cc-pvtz
METHOD		rimp2
AUX_BASIS	rimp2-cc-pvtz
SOLVENT_METHOD	PCM
PURECART	11111
SYMMETRY	false
MEM_TOTAL	110000
SCF_CONVERGENCE = 6
THRESH=10
$end

$solvent
dielectric 4.90
$end
--------------------------------------------------------------

             Standard Nuclear Orientation (Angstroms)
    I     Atom           X                Y                Z
 ----------------------------------------------------------------
    1      C      -0.1200110000    -0.5660100000     0.0106690000
    2      C       0.0299890000     0.2844900000     1.1100690000
    3      C       0.2702890000     1.6473900000     0.7873690000
    4      H      -0.0341110000    -0.0787100000     2.1467690000
    5      C       0.3086890000     1.8646900000    -0.6018310000
    6      S       0.0436890000     0.3620900000    -1.4761310000
    7      C       0.4591890000     2.7185900000     1.8252690000
    8      H       0.3852890000     2.2993900000     2.8473690000
    9      H      -0.3060110000     3.5178900000     1.7368690000
   10      H       1.4516890000     3.2078900000     1.7368690000
   11      C      -0.1200110000    -2.0067100000     0.0106690000
   12      H       0.2492890000    -2.0064100000     1.0255690000
   13      H      -0.8898110000    -2.7105100000     0.2907690000
   14      H       0.7699890000    -2.5256100000    -0.3132310000
   15      H       0.4734890000     2.7993900000    -1.1509310000
 ----------------------------------------------------------------

   10    -629.4225594488      5.03e-07  Convergence criterion met
 Total energy in the final basis set =     -629.4225594488
        RIMP2         total energy =      -630.6006494596 a.u.

                    Orbital Energies (a.u.)
 --------------------------------------------------------------

 Alpha MOs
 -- Occupied --
-91.9758 -11.2781 -11.2564 -11.2470 -11.2328 -11.2273 -11.2164  -8.9758
 -6.6567  -6.6562  -6.6556  -1.1612  -1.0542  -0.9994  -0.9396  -0.8841
 -0.7424  -0.7238  -0.6488  -0.5913  -0.5769  -0.5660  -0.5597  -0.5422
 -0.5099  -0.4849  -0.4681  -0.4406  -0.3373  -0.3019

          Ground-State Mulliken Net Atomic Charges

     Atom                 Charge (a.u.)
  ----------------------------------------
      1 C                     0.061941
      2 C                    -0.269543
      3 C                     0.031362
      4 H                     0.176868
      5 C                    -0.252679
      6 S                    -0.007681
      7 C                    -0.273521
      8 H                     0.101082
      9 H                     0.107219
     10 H                     0.107154
     11 C                    -0.378717
     12 H                     0.126156
     13 H                     0.144689
     14 H                     0.132681
     15 H                     0.192990
  ----------------------------------------
  Sum of atomic charges =     0.000000

                    Cartesian Multipole Moments
 -----------------------------------------------------------------
    Charge (ESU x 10^10)
                -0.0000
    Dipole Moment (Debye)
         X       0.4942      Y      -0.1368      Z       2.1027
       Tot       2.1643
    Quadrupole Moments (Debye-Ang)
        XX     -53.5883     XY       1.0580     YY     -42.4958
        XZ      -0.2309     YZ      -1.0611     ZZ     -48.8689

 Total job time:  158.34s(wall), 156.44s(cpu)
        *  Thank you very much for using Q-Chem.  Have a nice day.  *
