 Q-Chem 5.4, Q-Chem, Inc., Pleasanton, CA (2021)
 Q-Chem 5.4.0 for Intel X86 EM64T Linux

User input:
--------------------------------------------------------------
$molecule
0 1
C	-0.281939	-0.512744	0.013913
C	0.083061	0.269956	1.113313
C	0.667961	1.524156	0.790613
H	-0.072839	-0.064344	2.150013
C	0.761261	1.724156	-0.598587
S	0.116361	0.341356	-1.472887
C	1.127661	2.509956	1.828513
H	0.947761	2.124256	2.850613
H	0.595361	3.480156	1.740113
H	2.212961	2.725856	1.740113
C	-0.281939	-1.953444	0.013913
H	-1.296839	-1.953644	0.383213
H	-0.001839	-2.657244	0.783713
H	-0.605839	-2.472344	-0.876087
H	1.162361	2.584456	-1.147687
$end

$rem
JOBTYPE		SP
EXCHANGE	HF
CORRELATION	pRIMP2
BASIS		cc-pvtz
METHOD		rimp2
AUX_BASIS	rimp2-cc-pvtz
SOLVENT_METHOD	PCM
PURECART	11111
SYMMETRY	false
MEM_TOTAL	110000
SCF_CONVERGENCE = 6
THRESH=10
$end

$solvent
dielectric 4.90
$end
--------------------------------------------------------------

             Standard Nuclear Orientation (Angstroms)
    I     Atom           X                Y                Z
 ----------------------------------------------------------------
    1      C      -0.2819390000    -0.5127440000     0.0139130000
    2      C       0.0830610000     0.2699560000     1.1133130000
    3      C       0.6679610000     1.5241560000     0.7906130000
    4      H      -0.0728390000    -0.0643440000     2.1500130000
    5      C       0.7612610000     1.7241560000    -0.5985870000
    6      S       0.1163610000     0.3413560000    -1.4728870000
    7      C       1.1276610000     2.5099560000     1.8285130000
    8      H       0.9477610000     2.1242560000     2.8506130000
    9      H       0.5953610000     3.4801560000     1.7401130000
   10      H       2.2129610000     2.7258560000     1.7401130000
   11      C      -0.2819390000    -1.9534440000     0.0139130000
   12      H      -1.2968390000    -1.9536440000     0.3832130000
   13      H      -0.0018390000    -2.6572440000     0.7837130000
   14      H      -0.6058390000    -2.4723440000    -0.8760870000
   15      H       1.1623610000     2.5844560000    -1.1476870000
 ----------------------------------------------------------------

   10    -629.4074752585      5.86e-07  Convergence criterion met
 Total energy in the final basis set =     -629.4074752585
        RIMP2         total energy =      -630.5876956716 a.u.

                    Orbital Energies (a.u.)
 --------------------------------------------------------------

 Alpha MOs
 -- Occupied --
-91.9766 -11.2771 -11.2543 -11.2474 -11.2288 -11.2268 -11.2168  -8.9766
 -6.6575  -6.6569  -6.6563  -1.1611  -1.0546  -0.9973  -0.9414  -0.8831
 -0.7437  -0.7208  -0.6479  -0.5851  -0.5745  -0.5657  -0.5576  -0.5442
 -0.5111  -0.4934  -0.4600  -0.4493  -0.3374  -0.2889

          Ground-State Mulliken Net Atomic Charges

     Atom                 Charge (a.u.)
  ----------------------------------------
      1 C                     0.037077
      2 C                    -0.296878
      3 C                     0.051275
      4 H                     0.175303
      5 C                    -0.264286
      6 S                     0.005247
      7 C                    -0.271543
      8 H                     0.101412
      9 H                     0.107049
     10 H                     0.106815
     11 C                    -0.377288
     12 H                     0.135495
     13 H                     0.162560
     14 H                     0.135909
     15 H                     0.191853
  ----------------------------------------
  Sum of atomic charges =     0.000000

                    Cartesian Multipole Moments
 -----------------------------------------------------------------
    Charge (ESU x 10^10)
                -0.0000
    Dipole Moment (Debye)
         X      -0.0972      Y      -0.4212      Z       1.7076
       Tot       1.7615
    Quadrupole Moments (Debye-Ang)
        XX     -52.5053     XY       4.7910     YY     -43.7784
        XZ       0.2307     YZ      -0.3465     ZZ     -48.4469

 Total job time:  157.06s(wall), 155.21s(cpu)
        *  Thank you very much for using Q-Chem.  Have a nice day.  *
