 Q-Chem 5.4, Q-Chem, Inc., Pleasanton, CA (2021)
 Q-Chem 5.4.0 for Intel X86 EM64T Linux

User input:
--------------------------------------------------------------
$molecule
0 1
C	-0.230604	-0.535397	0.019710
C	0.064796	0.276103	1.119110
C	0.538096	1.576503	0.796410
H	-0.061304	-0.070397	2.155810
C	0.613596	1.783903	-0.592790
S	0.091696	0.350203	-1.467090
C	0.910196	2.598703	1.834310
H	0.764596	2.198703	2.856410
H	0.295396	3.518703	1.745910
H	1.972596	2.908303	1.745910
C	-0.230604	-1.976097	0.019710
H	-0.418004	-1.975797	-1.043890
H	0.576196	-2.679897	-0.122490
H	-1.163304	-2.494997	0.184210
H	0.938296	2.675903	-1.141890
$end

$rem
JOBTYPE		SP
EXCHANGE	HF
CORRELATION	pRIMP2
BASIS		cc-pvtz
METHOD		rimp2
AUX_BASIS	rimp2-cc-pvtz
SOLVENT_METHOD	PCM
PURECART	11111
SYMMETRY	false
MEM_TOTAL	110000
SCF_CONVERGENCE = 6
THRESH=10
$end

$solvent
dielectric 4.90
$end
--------------------------------------------------------------

             Standard Nuclear Orientation (Angstroms)
    I     Atom           X                Y                Z
 ----------------------------------------------------------------
    1      C      -0.2306040000    -0.5353970000     0.0197100000
    2      C       0.0647960000     0.2761030000     1.1191100000
    3      C       0.5380960000     1.5765030000     0.7964100000
    4      H      -0.0613040000    -0.0703970000     2.1558100000
    5      C       0.6135960000     1.7839030000    -0.5927900000
    6      S       0.0916960000     0.3502030000    -1.4670900000
    7      C       0.9101960000     2.5987030000     1.8343100000
    8      H       0.7645960000     2.1987030000     2.8564100000
    9      H       0.2953960000     3.5187030000     1.7459100000
   10      H       1.9725960000     2.9083030000     1.7459100000
   11      C      -0.2306040000    -1.9760970000     0.0197100000
   12      H      -0.4180040000    -1.9757970000    -1.0438900000
   13      H       0.5761960000    -2.6798970000    -0.1224900000
   14      H      -1.1633040000    -2.4949970000     0.1842100000
   15      H       0.9382960000     2.6759030000    -1.1418900000
 ----------------------------------------------------------------

   10    -629.4117801676      5.26e-07  Convergence criterion met
 Total energy in the final basis set =     -629.4117801676
        RIMP2         total energy =      -630.5916926508 a.u.

                    Orbital Energies (a.u.)
 --------------------------------------------------------------

 Alpha MOs
 -- Occupied --
-91.9801 -11.2706 -11.2608 -11.2473 -11.2317 -11.2270 -11.2144  -8.9800
 -6.6609  -6.6603  -6.6598  -1.1619  -1.0547  -0.9951  -0.9461  -0.8815
 -0.7485  -0.7196  -0.6473  -0.5900  -0.5761  -0.5679  -0.5523  -0.5473
 -0.5114  -0.4798  -0.4648  -0.4434  -0.3378  -0.3041

          Ground-State Mulliken Net Atomic Charges

     Atom                 Charge (a.u.)
  ----------------------------------------
      1 C                     0.025416
      2 C                    -0.256158
      3 C                     0.039931
      4 H                     0.179731
      5 C                    -0.252084
      6 S                    -0.000980
      7 C                    -0.272251
      8 H                     0.101982
      9 H                     0.106751
     10 H                     0.106466
     11 C                    -0.356627
     12 H                     0.110959
     13 H                     0.143058
     14 H                     0.128503
     15 H                     0.195303
  ----------------------------------------
  Sum of atomic charges =     0.000000

                    Cartesian Multipole Moments
 -----------------------------------------------------------------
    Charge (ESU x 10^10)
                -0.0000
    Dipole Moment (Debye)
         X       0.4621      Y       0.1507      Z       0.9116
       Tot       1.0331
    Quadrupole Moments (Debye-Ang)
        XX     -52.7094     XY       3.0119     YY     -43.4089
        XZ       0.0316     YZ       1.3707     ZZ     -48.7414

 Total job time:  157.50s(wall), 155.77s(cpu)
        *  Thank you very much for using Q-Chem.  Have a nice day.  *
