 Q-Chem 5.4, Q-Chem, Inc., Pleasanton, CA (2021)
 Q-Chem 5.4.0 for Intel X86 EM64T Linux

User input:
--------------------------------------------------------------
$molecule
0 1
C	-0.524398	-0.333974	0.013912
C	0.137202	0.221126	1.113312
C	1.197302	1.110626	0.790612
H	-0.145298	-0.015974	2.150012
C	1.366402	1.252426	-0.598588
S	0.197502	0.271726	-1.472888
C	2.030602	1.809826	1.828512
H	1.704502	1.536226	2.850612
H	1.958202	2.914026	1.740112
H	3.105402	1.546726	1.740112
C	-0.524398	-1.774674	0.013912
H	0.490402	-1.774374	0.383412
H	-0.804598	-2.478474	0.783712
H	-0.200498	-2.293574	-0.876088
H	2.093502	1.862626	-1.147688
$end

$rem
JOBTYPE		SP
EXCHANGE	HF
CORRELATION	pRIMP2
BASIS		cc-pvtz
METHOD		rimp2
AUX_BASIS	rimp2-cc-pvtz
SOLVENT_METHOD	PCM
PURECART	11111
SYMMETRY	false
MEM_TOTAL	110000
SCF_CONVERGENCE = 6
THRESH=10
$end

$solvent
dielectric 4.90
$end
--------------------------------------------------------------

             Standard Nuclear Orientation (Angstroms)
    I     Atom           X                Y                Z
 ----------------------------------------------------------------
    1      C      -0.5243980000    -0.3339740000     0.0139120000
    2      C       0.1372020000     0.2211260000     1.1133120000
    3      C       1.1973020000     1.1106260000     0.7906120000
    4      H      -0.1452980000    -0.0159740000     2.1500120000
    5      C       1.3664020000     1.2524260000    -0.5985880000
    6      S       0.1975020000     0.2717260000    -1.4728880000
    7      C       2.0306020000     1.8098260000     1.8285120000
    8      H       1.7045020000     1.5362260000     2.8506120000
    9      H       1.9582020000     2.9140260000     1.7401120000
   10      H       3.1054020000     1.5467260000     1.7401120000
   11      C      -0.5243980000    -1.7746740000     0.0139120000
   12      H       0.4904020000    -1.7743740000     0.3834120000
   13      H      -0.8045980000    -2.4784740000     0.7837120000
   14      H      -0.2004980000    -2.2935740000    -0.8760880000
   15      H       2.0935020000     1.8626260000    -1.1476880000
 ----------------------------------------------------------------

   10    -629.3681110368      7.80e-07  Convergence criterion met
 Total energy in the final basis set =     -629.3681110368
        RIMP2         total energy =      -630.5570278829 a.u.

                    Orbital Energies (a.u.)
 --------------------------------------------------------------

 Alpha MOs
 -- Occupied --
-91.9791 -11.2673 -11.2663 -11.2496 -11.2347 -11.2282 -11.2138  -8.9793
 -6.6602  -6.6595  -6.6591  -1.1720  -1.0574  -0.9984  -0.9370  -0.8813
 -0.7478  -0.7264  -0.6463  -0.5903  -0.5783  -0.5677  -0.5547  -0.5457
 -0.5101  -0.4860  -0.4593  -0.4519  -0.3357  -0.2868

          Ground-State Mulliken Net Atomic Charges

     Atom                 Charge (a.u.)
  ----------------------------------------
      1 C                    -0.045984
      2 C                    -0.188285
      3 C                     0.006520
      4 H                     0.177598
      5 C                    -0.237199
      6 S                     0.021315
      7 C                    -0.268413
      8 H                     0.102150
      9 H                     0.107409
     10 H                     0.104479
     11 C                    -0.374594
     12 H                     0.132838
     13 H                     0.136048
     14 H                     0.130026
     15 H                     0.196091
  ----------------------------------------
  Sum of atomic charges =     0.000000

                    Cartesian Multipole Moments
 -----------------------------------------------------------------
    Charge (ESU x 10^10)
                -0.0000
    Dipole Moment (Debye)
         X       2.0998      Y      -0.2179      Z       1.6818
       Tot       2.6990
    Quadrupole Moments (Debye-Ang)
        XX     -50.3024     XY       3.7392     YY     -48.1565
        XZ      -0.2309     YZ      -0.5565     ZZ     -47.8707

 Total job time:  165.35s(wall), 162.07s(cpu)
        *  Thank you very much for using Q-Chem.  Have a nice day.  *
