 Q-Chem 5.4, Q-Chem, Inc., Pleasanton, CA (2021)
 Q-Chem 5.4.0 for Intel X86 EM64T Linux

User input:
--------------------------------------------------------------
$molecule
0 1
C	0.000557	-0.576309	0.010180
C	0.000557	0.287291	1.109580
C	0.000657	1.671191	0.786880
H	0.000557	-0.081509	2.146280
C	0.000657	1.891891	-0.602320
S	0.000557	0.366091	-1.476620
C	0.000657	2.758991	1.824780
H	0.000657	2.333291	2.846880
H	-0.891743	3.413291	1.736380
H	0.893057	3.413191	1.736380
C	0.000557	-2.017009	0.010180
H	0.000457	-2.017209	1.090180
H	0.819757	-2.720809	0.010280
H	-0.946543	-2.535909	0.010180
H	0.000657	2.841091	-1.151420
$end

$rem
JOBTYPE		SP
EXCHANGE	HF
CORRELATION	pRIMP2
BASIS		cc-pvtz
METHOD		rimp2
AUX_BASIS	rimp2-cc-pvtz
SOLVENT_METHOD	PCM
PURECART	11111
SYMMETRY	false
MEM_TOTAL	110000
SCF_CONVERGENCE = 6
THRESH=10
$end

$solvent
dielectric 4.90
$end
--------------------------------------------------------------

             Standard Nuclear Orientation (Angstroms)
    I     Atom           X                Y                Z
 ----------------------------------------------------------------
    1      C       0.0005570000    -0.5763090000     0.0101800000
    2      C       0.0005570000     0.2872910000     1.1095800000
    3      C       0.0006570000     1.6711910000     0.7868800000
    4      H       0.0005570000    -0.0815090000     2.1462800000
    5      C       0.0006570000     1.8918910000    -0.6023200000
    6      S       0.0005570000     0.3660910000    -1.4766200000
    7      C       0.0006570000     2.7589910000     1.8247800000
    8      H       0.0006570000     2.3332910000     2.8468800000
    9      H      -0.8917430000     3.4132910000     1.7363800000
   10      H       0.8930570000     3.4131910000     1.7363800000
   11      C       0.0005570000    -2.0170090000     0.0101800000
   12      H       0.0004570000    -2.0172090000     1.0901800000
   13      H       0.8197570000    -2.7208090000     0.0102800000
   14      H      -0.9465430000    -2.5359090000     0.0101800000
   15      H       0.0006570000     2.8410910000    -1.1514200000
 ----------------------------------------------------------------

   10    -629.4251707421      4.91e-07  Convergence criterion met
 Total energy in the final basis set =     -629.4251707421
        RIMP2         total energy =      -630.6029923193 a.u.

                    Orbital Energies (a.u.)
 --------------------------------------------------------------

 Alpha MOs
 -- Occupied --
-91.9748 -11.2776 -11.2574 -11.2470 -11.2344 -11.2274 -11.2164  -8.9750
 -6.6559  -6.6553  -6.6548  -1.1610  -1.0540  -0.9998  -0.9397  -0.8845
 -0.7423  -0.7243  -0.6489  -0.5917  -0.5779  -0.5664  -0.5596  -0.5419
 -0.5103  -0.4852  -0.4680  -0.4371  -0.3381  -0.3044

          Ground-State Mulliken Net Atomic Charges

     Atom                 Charge (a.u.)
  ----------------------------------------
      1 C                     0.068641
      2 C                    -0.270826
      3 C                     0.030230
      4 H                     0.177491
      5 C                    -0.249977
      6 S                    -0.008593
      7 C                    -0.273840
      8 H                     0.101119
      9 H                     0.107229
     10 H                     0.107248
     11 C                    -0.372781
     12 H                     0.119807
     13 H                     0.144107
     14 H                     0.126792
     15 H                     0.193351
  ----------------------------------------
  Sum of atomic charges =     0.000000

                    Cartesian Multipole Moments
 -----------------------------------------------------------------
    Charge (ESU x 10^10)
                -0.0000
    Dipole Moment (Debye)
         X      -0.0169      Y      -0.0649      Z       2.1507
       Tot       2.1517
    Quadrupole Moments (Debye-Ang)
        XX     -53.6882     XY      -0.1061     YY     -42.1503
        XZ       0.0036     YZ      -1.0941     ZZ     -48.9757

 Total job time:  157.13s(wall), 155.01s(cpu)
        *  Thank you very much for using Q-Chem.  Have a nice day.  *
