 Q-Chem 5.4, Q-Chem, Inc., Pleasanton, CA (2021)
 Q-Chem 5.4.0 for Intel X86 EM64T Linux

User input:
--------------------------------------------------------------
$molecule
0 1
C	-0.113726	-0.566010	0.017710
C	0.036274	0.284490	1.117110
C	0.276574	1.647390	0.794410
H	-0.027826	-0.078710	2.153810
C	0.314974	1.864690	-0.594790
S	0.049974	0.362090	-1.469090
C	0.465474	2.718590	1.832310
H	0.391574	2.299390	2.854410
H	-0.299726	3.517890	1.743910
H	1.457974	3.207890	1.743910
C	-0.113726	-2.006710	0.017710
H	-0.941026	-2.006410	-0.676590
H	0.412874	-2.710510	-0.609790
H	-0.722526	-2.525610	0.743310
H	0.479774	2.799390	-1.143890
$end

$rem
JOBTYPE		SP
EXCHANGE	HF
CORRELATION	pRIMP2
BASIS		cc-pvtz
METHOD		rimp2
AUX_BASIS	rimp2-cc-pvtz
SOLVENT_METHOD	PCM
PURECART	11111
SYMMETRY	false
MEM_TOTAL	110000
SCF_CONVERGENCE = 6
THRESH=10
$end

$solvent
dielectric 4.90
$end
--------------------------------------------------------------

             Standard Nuclear Orientation (Angstroms)
    I     Atom           X                Y                Z
 ----------------------------------------------------------------
    1      C      -0.1137260000    -0.5660100000     0.0177100000
    2      C       0.0362740000     0.2844900000     1.1171100000
    3      C       0.2765740000     1.6473900000     0.7944100000
    4      H      -0.0278260000    -0.0787100000     2.1538100000
    5      C       0.3149740000     1.8646900000    -0.5947900000
    6      S       0.0499740000     0.3620900000    -1.4690900000
    7      C       0.4654740000     2.7185900000     1.8323100000
    8      H       0.3915740000     2.2993900000     2.8544100000
    9      H      -0.2997260000     3.5178900000     1.7439100000
   10      H       1.4579740000     3.2078900000     1.7439100000
   11      C      -0.1137260000    -2.0067100000     0.0177100000
   12      H      -0.9410260000    -2.0064100000    -0.6765900000
   13      H       0.4128740000    -2.7105100000    -0.6097900000
   14      H      -0.7225260000    -2.5256100000     0.7433100000
   15      H       0.4797740000     2.7993900000    -1.1438900000
 ----------------------------------------------------------------

   10    -629.4202872577      5.96e-07  Convergence criterion met
 Total energy in the final basis set =     -629.4202872577
        RIMP2         total energy =      -630.5972250485 a.u.

                    Orbital Energies (a.u.)
 --------------------------------------------------------------

 Alpha MOs
 -- Occupied --
-91.9785 -11.2796 -11.2542 -11.2470 -11.2272 -11.2266 -11.2184  -8.9784
 -6.6594  -6.6589  -6.6582  -1.1605  -1.0553  -0.9962  -0.9446  -0.8823
 -0.7461  -0.7187  -0.6472  -0.5904  -0.5752  -0.5692  -0.5506  -0.5472
 -0.5093  -0.4880  -0.4642  -0.4524  -0.3388  -0.2945

          Ground-State Mulliken Net Atomic Charges

     Atom                 Charge (a.u.)
  ----------------------------------------
      1 C                     0.033732
      2 C                    -0.260683
      3 C                     0.031907
      4 H                     0.181390
      5 C                    -0.257500
      6 S                    -0.008636
      7 C                    -0.273759
      8 H                     0.101377
      9 H                     0.107027
     10 H                     0.107116
     11 C                    -0.367534
     12 H                     0.123885
     13 H                     0.150459
     14 H                     0.137073
     15 H                     0.194145
  ----------------------------------------
  Sum of atomic charges =     0.000000

                    Cartesian Multipole Moments
 -----------------------------------------------------------------
    Charge (ESU x 10^10)
                -0.0000
    Dipole Moment (Debye)
         X      -0.2978      Y      -0.3171      Z       1.0397
       Tot       1.1270
    Quadrupole Moments (Debye-Ang)
        XX     -53.7698     XY       2.6069     YY     -42.1954
        XZ      -0.2514     YZ       1.2284     ZZ     -48.6730

 Total job time:  157.49s(wall), 154.79s(cpu)
        *  Thank you very much for using Q-Chem.  Have a nice day.  *
