 Q-Chem 5.4, Q-Chem, Inc., Pleasanton, CA (2021)
 Q-Chem 5.4.0 for Intel X86 EM64T Linux

User input:
--------------------------------------------------------------
$molecule
0 1
C	-0.228454	-0.535397	0.018379
C	0.066946	0.276103	1.117779
C	0.540246	1.576503	0.795079
H	-0.059154	-0.070397	2.154479
C	0.615746	1.783903	-0.594121
S	0.093846	0.350203	-1.468421
C	0.912346	2.598703	1.832979
H	0.766746	2.198703	2.855079
H	0.297546	3.518703	1.744579
H	1.974746	2.908303	1.744579
C	-0.228454	-1.976097	0.018379
H	-0.922554	-1.975797	-0.809021
H	0.399146	-2.679897	-0.508121
H	-0.953954	-2.494997	0.627179
H	0.940446	2.675903	-1.143221
$end

$rem
JOBTYPE		SP
EXCHANGE	HF
CORRELATION	pRIMP2
BASIS		cc-pvtz
METHOD		rimp2
AUX_BASIS	rimp2-cc-pvtz
SOLVENT_METHOD	PCM
PURECART	11111
SYMMETRY	false
MEM_TOTAL	110000
SCF_CONVERGENCE = 6
THRESH=10
$end

$solvent
dielectric 4.90
$end
--------------------------------------------------------------

             Standard Nuclear Orientation (Angstroms)
    I     Atom           X                Y                Z
 ----------------------------------------------------------------
    1      C      -0.2284540000    -0.5353970000     0.0183790000
    2      C       0.0669460000     0.2761030000     1.1177790000
    3      C       0.5402460000     1.5765030000     0.7950790000
    4      H      -0.0591540000    -0.0703970000     2.1544790000
    5      C       0.6157460000     1.7839030000    -0.5941210000
    6      S       0.0938460000     0.3502030000    -1.4684210000
    7      C       0.9123460000     2.5987030000     1.8329790000
    8      H       0.7667460000     2.1987030000     2.8550790000
    9      H       0.2975460000     3.5187030000     1.7445790000
   10      H       1.9747460000     2.9083030000     1.7445790000
   11      C      -0.2284540000    -1.9760970000     0.0183790000
   12      H      -0.9225540000    -1.9757970000    -0.8090210000
   13      H       0.3991460000    -2.6798970000    -0.5081210000
   14      H      -0.9539540000    -2.4949970000     0.6271790000
   15      H       0.9404460000     2.6759030000    -1.1432210000
 ----------------------------------------------------------------

   10    -629.4126571694      5.34e-07  Convergence criterion met
 Total energy in the final basis set =     -629.4126571694
        RIMP2         total energy =      -630.5918233178 a.u.

                    Orbital Energies (a.u.)
 --------------------------------------------------------------

 Alpha MOs
 -- Occupied --
-91.9791 -11.2741 -11.2583 -11.2473 -11.2300 -11.2269 -11.2158  -8.9790
 -6.6600  -6.6594  -6.6588  -1.1614  -1.0547  -0.9958  -0.9451  -0.8821
 -0.7471  -0.7195  -0.6465  -0.5899  -0.5753  -0.5699  -0.5510  -0.5468
 -0.5112  -0.4832  -0.4630  -0.4495  -0.3383  -0.2974

          Ground-State Mulliken Net Atomic Charges

     Atom                 Charge (a.u.)
  ----------------------------------------
      1 C                     0.009504
      2 C                    -0.245645
      3 C                     0.031553
      4 H                     0.180711
      5 C                    -0.248660
      6 S                    -0.004070
      7 C                    -0.272551
      8 H                     0.101654
      9 H                     0.106906
     10 H                     0.106644
     11 C                    -0.362651
     12 H                     0.117820
     13 H                     0.149684
     14 H                     0.134729
     15 H                     0.194371
  ----------------------------------------
  Sum of atomic charges =     0.000000

                    Cartesian Multipole Moments
 -----------------------------------------------------------------
    Charge (ESU x 10^10)
                -0.0000
    Dipole Moment (Debye)
         X       0.1094      Y      -0.0644      Z       1.0232
       Tot       1.0311
    Quadrupole Moments (Debye-Ang)
        XX     -52.8580     XY       3.7217     YY     -43.2150
        XZ      -0.1981     YZ       1.2069     ZZ     -48.6483

 Total job time:  158.54s(wall), 155.72s(cpu)
        *  Thank you very much for using Q-Chem.  Have a nice day.  *
