 Q-Chem 5.4, Q-Chem, Inc., Pleasanton, CA (2021)
 Q-Chem 5.4.0 for Intel X86 EM64T Linux

User input:
--------------------------------------------------------------
$molecule
0 1
C	-0.590817	-0.237129	0.018590
C	0.157083	0.194671	1.117990
C	1.355583	0.886571	0.795290
H	-0.162317	0.010271	2.154690
C	1.546683	0.996871	-0.593910
S	0.225383	0.234071	-1.468210
C	2.297683	1.430471	1.833190
H	1.928983	1.217571	2.855290
H	2.418083	2.530371	1.744790
H	3.310483	0.984671	1.744790
C	-0.590817	-1.677829	0.018590
H	0.236583	-1.677529	-0.675510
H	-0.064317	-2.381629	0.646190
H	-1.199617	-2.196729	-0.706910
H	2.368783	1.471471	-1.143010
$end

$rem
JOBTYPE		SP
EXCHANGE	HF
CORRELATION	pRIMP2
BASIS		cc-pvtz
METHOD		rimp2
AUX_BASIS	rimp2-cc-pvtz
SOLVENT_METHOD	PCM
PURECART	11111
SYMMETRY	false
MEM_TOTAL	110000
SCF_CONVERGENCE = 6
THRESH=10
$end

$solvent
dielectric 4.90
$end
--------------------------------------------------------------

             Standard Nuclear Orientation (Angstroms)
    I     Atom           X                Y                Z
 ----------------------------------------------------------------
    1      C      -0.5908170000    -0.2371290000     0.0185900000
    2      C       0.1570830000     0.1946710000     1.1179900000
    3      C       1.3555830000     0.8865710000     0.7952900000
    4      H      -0.1623170000     0.0102710000     2.1546900000
    5      C       1.5466830000     0.9968710000    -0.5939100000
    6      S       0.2253830000     0.2340710000    -1.4682100000
    7      C       2.2976830000     1.4304710000     1.8331900000
    8      H       1.9289830000     1.2175710000     2.8552900000
    9      H       2.4180830000     2.5303710000     1.7447900000
   10      H       3.3104830000     0.9846710000     1.7447900000
   11      C      -0.5908170000    -1.6778290000     0.0185900000
   12      H       0.2365830000    -1.6775290000    -0.6755100000
   13      H      -0.0643170000    -2.3816290000     0.6461900000
   14      H      -1.1996170000    -2.1967290000    -0.7069100000
   15      H       2.3687830000     1.4714710000    -1.1430100000
 ----------------------------------------------------------------

   10    -629.3386946116      7.49e-07  Convergence criterion met
 Total energy in the final basis set =     -629.3386946116
        RIMP2         total energy =      -630.5299805037 a.u.

                    Orbital Energies (a.u.)
 --------------------------------------------------------------

 Alpha MOs
 -- Occupied --
-91.9691 -11.2817 -11.2526 -11.2508 -11.2497 -11.2293 -11.2071  -8.9713
 -6.6520  -6.6511  -6.6509  -1.1784  -1.0600  -0.9961  -0.9427  -0.8775
 -0.7560  -0.7294  -0.6460  -0.5882  -0.5849  -0.5660  -0.5544  -0.5465
 -0.5169  -0.4841  -0.4618  -0.4274  -0.3383  -0.2901

          Ground-State Mulliken Net Atomic Charges

     Atom                 Charge (a.u.)
  ----------------------------------------
      1 C                    -0.079495
      2 C                    -0.139834
      3 C                    -0.018270
      4 H                     0.186670
      5 C                    -0.189735
      6 S                    -0.005613
      7 C                    -0.268213
      8 H                     0.102194
      9 H                     0.107897
     10 H                     0.105487
     11 C                    -0.377530
     12 H                     0.129919
     13 H                     0.143458
     14 H                     0.104941
     15 H                     0.198124
  ----------------------------------------
  Sum of atomic charges =     0.000000

                    Cartesian Multipole Moments
 -----------------------------------------------------------------
    Charge (ESU x 10^10)
                -0.0000
    Dipole Moment (Debye)
         X       2.8627      Y      -0.0042      Z       1.4664
       Tot       3.2164
    Quadrupole Moments (Debye-Ang)
        XX     -48.5906     XY       3.3622     YY     -50.1783
        XZ       0.1000     YZ       0.8466     ZZ     -47.8665

 Total job time:  166.32s(wall), 164.49s(cpu)
        *  Thank you very much for using Q-Chem.  Have a nice day.  *
