 Q-Chem 5.4, Q-Chem, Inc., Pleasanton, CA (2021)
 Q-Chem 5.4.0 for Intel X86 EM64T Linux

User input:
--------------------------------------------------------------
$molecule
0 1
C	-0.339454	-0.485421	0.019910
C	0.092346	0.262479	1.119310
C	0.784346	1.460979	0.796610
H	-0.092054	-0.056921	2.156010
C	0.894646	1.652079	-0.592590
S	0.131746	0.330679	-1.466890
C	1.328246	2.402979	1.834510
H	1.115446	2.034379	2.856610
H	0.882546	3.415779	1.746110
H	2.428246	2.523379	1.746110
C	-0.339454	-1.926121	0.019910
H	-0.151754	-1.925821	-1.043690
H	0.467246	-2.629921	0.162210
H	-1.272154	-2.445021	-0.144590
H	1.369346	2.474079	-1.141690
$end

$rem
JOBTYPE		SP
EXCHANGE	HF
CORRELATION	pRIMP2
BASIS		cc-pvtz
METHOD		rimp2
AUX_BASIS	rimp2-cc-pvtz
SOLVENT_METHOD	PCM
PURECART	11111
SYMMETRY	false
MEM_TOTAL	110000
SCF_CONVERGENCE = 6
THRESH=10
$end

$solvent
dielectric 4.90
$end
--------------------------------------------------------------

             Standard Nuclear Orientation (Angstroms)
    I     Atom           X                Y                Z
 ----------------------------------------------------------------
    1      C      -0.3394540000    -0.4854210000     0.0199100000
    2      C       0.0923460000     0.2624790000     1.1193100000
    3      C       0.7843460000     1.4609790000     0.7966100000
    4      H      -0.0920540000    -0.0569210000     2.1560100000
    5      C       0.8946460000     1.6520790000    -0.5925900000
    6      S       0.1317460000     0.3306790000    -1.4668900000
    7      C       1.3282460000     2.4029790000     1.8345100000
    8      H       1.1154460000     2.0343790000     2.8566100000
    9      H       0.8825460000     3.4157790000     1.7461100000
   10      H       2.4282460000     2.5233790000     1.7461100000
   11      C      -0.3394540000    -1.9261210000     0.0199100000
   12      H      -0.1517540000    -1.9258210000    -1.0436900000
   13      H       0.4672460000    -2.6299210000     0.1622100000
   14      H      -1.2721540000    -2.4450210000    -0.1445900000
   15      H       1.3693460000     2.4740790000    -1.1416900000
 ----------------------------------------------------------------

   10    -629.4000023801      5.52e-07  Convergence criterion met
 Total energy in the final basis set =     -629.4000023801
        RIMP2         total energy =      -630.5820580776 a.u.

                    Orbital Energies (a.u.)
 --------------------------------------------------------------

 Alpha MOs
 -- Occupied --
-91.9780 -11.2666 -11.2638 -11.2471 -11.2351 -11.2272 -11.2122  -8.9783
 -6.6592  -6.6585  -6.6580  -1.1638  -1.0551  -0.9944  -0.9458  -0.8806
 -0.7496  -0.7206  -0.6469  -0.5883  -0.5774  -0.5673  -0.5521  -0.5475
 -0.5131  -0.4761  -0.4644  -0.4417  -0.3369  -0.3035

          Ground-State Mulliken Net Atomic Charges

     Atom                 Charge (a.u.)
  ----------------------------------------
      1 C                     0.009817
      2 C                    -0.251298
      3 C                     0.043013
      4 H                     0.179467
      5 C                    -0.244902
      6 S                    -0.003510
      7 C                    -0.271430
      8 H                     0.101979
      9 H                     0.106993
     10 H                     0.105949
     11 C                    -0.360239
     12 H                     0.117824
     13 H                     0.150702
     14 H                     0.119753
     15 H                     0.195880
  ----------------------------------------
  Sum of atomic charges =     0.000000

                    Cartesian Multipole Moments
 -----------------------------------------------------------------
    Charge (ESU x 10^10)
                -0.0000
    Dipole Moment (Debye)
         X       1.0410      Y       0.1958      Z       0.9418
       Tot       1.4174
    Quadrupole Moments (Debye-Ang)
        XX     -51.7868     XY       3.4764     YY     -44.8702
        XZ       0.2730     YZ       1.3178     ZZ     -48.6014

 Total job time:  158.34s(wall), 157.02s(cpu)
        *  Thank you very much for using Q-Chem.  Have a nice day.  *
