 Q-Chem 5.4, Q-Chem, Inc., Pleasanton, CA (2021)
 Q-Chem 5.4.0 for Intel X86 EM64T Linux

User input:
--------------------------------------------------------------
$molecule
0 1
C	-0.522567	-0.333972	0.018946
C	0.139033	0.221128	1.118346
C	1.199133	1.110628	0.795646
H	-0.143467	-0.015972	2.155046
C	1.368233	1.252428	-0.593554
S	0.199333	0.271728	-1.467854
C	2.032433	1.809828	1.833546
H	1.706333	1.536228	2.855646
H	1.960033	2.914028	1.745146
H	3.107233	1.546728	1.745146
C	-0.522567	-1.774672	0.018946
H	0.017533	-1.774872	-0.916254
H	-1.231967	-2.478472	-0.390654
H	0.297633	-2.293572	0.492546
H	2.095333	1.862628	-1.142654
$end

$rem
JOBTYPE		SP
EXCHANGE	HF
CORRELATION	pRIMP2
BASIS		cc-pvtz
METHOD		rimp2
AUX_BASIS	rimp2-cc-pvtz
SOLVENT_METHOD	PCM
PURECART	11111
SYMMETRY	false
MEM_TOTAL	110000
SCF_CONVERGENCE = 6
THRESH=10
$end

$solvent
dielectric 4.90
$end
--------------------------------------------------------------

             Standard Nuclear Orientation (Angstroms)
    I     Atom           X                Y                Z
 ----------------------------------------------------------------
    1      C      -0.5225670000    -0.3339720000     0.0189460000
    2      C       0.1390330000     0.2211280000     1.1183460000
    3      C       1.1991330000     1.1106280000     0.7956460000
    4      H      -0.1434670000    -0.0159720000     2.1550460000
    5      C       1.3682330000     1.2524280000    -0.5935540000
    6      S       0.1993330000     0.2717280000    -1.4678540000
    7      C       2.0324330000     1.8098280000     1.8335460000
    8      H       1.7063330000     1.5362280000     2.8556460000
    9      H       1.9600330000     2.9140280000     1.7451460000
   10      H       3.1072330000     1.5467280000     1.7451460000
   11      C      -0.5225670000    -1.7746720000     0.0189460000
   12      H       0.0175330000    -1.7748720000    -0.9162540000
   13      H      -1.2319670000    -2.4784720000    -0.3906540000
   14      H       0.2976330000    -2.2935720000     0.4925460000
   15      H       2.0953330000     1.8626280000    -1.1426540000
 ----------------------------------------------------------------

   10    -629.3640775699      7.45e-07  Convergence criterion met
 Total energy in the final basis set =     -629.3640775699
        RIMP2         total energy =      -630.5521777399 a.u.

                    Orbital Energies (a.u.)
 --------------------------------------------------------------

 Alpha MOs
 -- Occupied --
-91.9720 -11.2731 -11.2578 -11.2479 -11.2450 -11.2283 -11.2073  -8.9736
 -6.6544  -6.6535  -6.6532  -1.1715  -1.0576  -0.9946  -0.9435  -0.8782
 -0.7532  -0.7251  -0.6441  -0.5902  -0.5809  -0.5652  -0.5514  -0.5482
 -0.5144  -0.4789  -0.4627  -0.4357  -0.3347  -0.2972

          Ground-State Mulliken Net Atomic Charges

     Atom                 Charge (a.u.)
  ----------------------------------------
      1 C                    -0.042587
      2 C                    -0.186702
      3 C                     0.009313
      4 H                     0.182180
      5 C                    -0.212386
      6 S                    -0.001885
      7 C                    -0.268532
      8 H                     0.101788
      9 H                     0.107520
     10 H                     0.105117
     11 C                    -0.381488
     12 H                     0.134666
     13 H                     0.127124
     14 H                     0.129536
     15 H                     0.196336
  ----------------------------------------
  Sum of atomic charges =     0.000000

                    Cartesian Multipole Moments
 -----------------------------------------------------------------
    Charge (ESU x 10^10)
                -0.0000
    Dipole Moment (Debye)
         X       2.1385      Y       0.1200      Z       1.1388
       Tot       2.4258
    Quadrupole Moments (Debye-Ang)
        XX     -49.5809     XY       3.9420     YY     -48.5335
        XZ       0.3359     YZ       1.3156     ZZ     -48.1001

 Total job time:  161.46s(wall), 160.28s(cpu)
        *  Thank you very much for using Q-Chem.  Have a nice day.  *
