 Q-Chem 5.4, Q-Chem, Inc., Pleasanton, CA (2021)
 Q-Chem 5.4.0 for Intel X86 EM64T Linux

User input:
--------------------------------------------------------------
$molecule
0 1
C	-0.517443	-0.333972	0.010669
C	0.144157	0.221128	1.110069
C	1.204257	1.110628	0.787369
H	-0.138343	-0.015972	2.146769
C	1.373357	1.252428	-0.601831
S	0.204457	0.271728	-1.476131
C	2.037557	1.809828	1.825269
H	1.711457	1.536228	2.847369
H	1.965157	2.914028	1.736869
H	3.112357	1.546728	1.736869
C	-0.517443	-1.774672	0.010669
H	-0.886943	-1.774872	1.025469
H	0.252357	-2.478472	0.290869
H	-1.407443	-2.293572	-0.313231
H	2.100457	1.862628	-1.150931
$end

$rem
JOBTYPE		SP
EXCHANGE	HF
CORRELATION	pRIMP2
BASIS		cc-pvtz
METHOD		rimp2
AUX_BASIS	rimp2-cc-pvtz
SOLVENT_METHOD	PCM
PURECART	11111
SYMMETRY	false
MEM_TOTAL	110000
SCF_CONVERGENCE = 6
THRESH=10
$end

$solvent
dielectric 4.90
$end
--------------------------------------------------------------

             Standard Nuclear Orientation (Angstroms)
    I     Atom           X                Y                Z
 ----------------------------------------------------------------
    1      C      -0.5174430000    -0.3339720000     0.0106690000
    2      C       0.1441570000     0.2211280000     1.1100690000
    3      C       1.2042570000     1.1106280000     0.7873690000
    4      H      -0.1383430000    -0.0159720000     2.1467690000
    5      C       1.3733570000     1.2524280000    -0.6018310000
    6      S       0.2044570000     0.2717280000    -1.4761310000
    7      C       2.0375570000     1.8098280000     1.8252690000
    8      H       1.7114570000     1.5362280000     2.8473690000
    9      H       1.9651570000     2.9140280000     1.7368690000
   10      H       3.1123570000     1.5467280000     1.7368690000
   11      C      -0.5174430000    -1.7746720000     0.0106690000
   12      H      -0.8869430000    -1.7748720000     1.0254690000
   13      H       0.2523570000    -2.4784720000     0.2908690000
   14      H      -1.4074430000    -2.2935720000    -0.3132310000
   15      H       2.1004570000     1.8626280000    -1.1509310000
 ----------------------------------------------------------------

   10    -629.3736964037      8.05e-07  Convergence criterion met
 Total energy in the final basis set =     -629.3736964037
        RIMP2         total energy =      -630.5616601990 a.u.

                    Orbital Energies (a.u.)
 --------------------------------------------------------------

 Alpha MOs
 -- Occupied --
-91.9720 -11.2763 -11.2524 -11.2495 -11.2484 -11.2290 -11.2091  -8.9728
 -6.6537  -6.6528  -6.6526  -1.1692  -1.0544  -1.0002  -0.9362  -0.8840
 -0.7461  -0.7308  -0.6455  -0.5856  -0.5840  -0.5691  -0.5543  -0.5424
 -0.5188  -0.4759  -0.4613  -0.4232  -0.3364  -0.3049

          Ground-State Mulliken Net Atomic Charges

     Atom                 Charge (a.u.)
  ----------------------------------------
      1 C                    -0.065071
      2 C                    -0.169378
      3 C                     0.000393
      4 H                     0.180372
      5 C                    -0.201924
      6 S                     0.004111
      7 C                    -0.267892
      8 H                     0.101641
      9 H                     0.106827
     10 H                     0.105648
     11 C                    -0.356533
     12 H                     0.104682
     13 H                     0.146336
     14 H                     0.114688
     15 H                     0.196100
  ----------------------------------------
  Sum of atomic charges =     0.000000

                    Cartesian Multipole Moments
 -----------------------------------------------------------------
    Charge (ESU x 10^10)
                -0.0000
    Dipole Moment (Debye)
         X       1.7318      Y       0.3369      Z       2.2489
       Tot       2.8584
    Quadrupole Moments (Debye-Ang)
        XX     -48.8559     XY       4.8764     YY     -48.3212
        XZ      -0.1963     YZ      -1.0005     ZZ     -48.3818

 Total job time:  159.86s(wall), 158.03s(cpu)
        *  Thank you very much for using Q-Chem.  Have a nice day.  *
