 Q-Chem 5.4, Q-Chem, Inc., Pleasanton, CA (2021)
 Q-Chem 5.4.0 for Intel X86 EM64T Linux

User input:
--------------------------------------------------------------
$molecule
0 1
C	-0.236690	-0.535395	0.013623
C	0.058710	0.276105	1.113023
C	0.532010	1.576505	0.790323
H	-0.067390	-0.070395	2.149723
C	0.607510	1.783905	-0.598877
S	0.085610	0.350205	-1.473177
C	0.904110	2.598705	1.828223
H	0.758510	2.198705	2.850323
H	0.289310	3.518705	1.739823
H	1.966510	2.908305	1.739823
C	-0.236690	-1.976095	0.013623
H	0.826910	-1.976295	0.201323
H	-0.094390	-2.679895	-0.793077
H	-0.401190	-2.494995	0.946323
H	0.932210	2.675905	-1.147977
$end

$rem
JOBTYPE		SP
EXCHANGE	HF
CORRELATION	pRIMP2
BASIS		cc-pvtz
METHOD		rimp2
AUX_BASIS	rimp2-cc-pvtz
SOLVENT_METHOD	PCM
PURECART	11111
SYMMETRY	false
MEM_TOTAL	110000
SCF_CONVERGENCE = 6
THRESH=10
$end

$solvent
dielectric 4.90
$end
--------------------------------------------------------------

             Standard Nuclear Orientation (Angstroms)
    I     Atom           X                Y                Z
 ----------------------------------------------------------------
    1      C      -0.2366900000    -0.5353950000     0.0136230000
    2      C       0.0587100000     0.2761050000     1.1130230000
    3      C       0.5320100000     1.5765050000     0.7903230000
    4      H      -0.0673900000    -0.0703950000     2.1497230000
    5      C       0.6075100000     1.7839050000    -0.5988770000
    6      S       0.0856100000     0.3502050000    -1.4731770000
    7      C       0.9041100000     2.5987050000     1.8282230000
    8      H       0.7585100000     2.1987050000     2.8503230000
    9      H       0.2893100000     3.5187050000     1.7398230000
   10      H       1.9665100000     2.9083050000     1.7398230000
   11      C      -0.2366900000    -1.9760950000     0.0136230000
   12      H       0.8269100000    -1.9762950000     0.2013230000
   13      H      -0.0943900000    -2.6798950000    -0.7930770000
   14      H      -0.4011900000    -2.4949950000     0.9463230000
   15      H       0.9322100000     2.6759050000    -1.1479770000
 ----------------------------------------------------------------

   10    -629.4182593876      6.84e-07  Convergence criterion met
 Total energy in the final basis set =     -629.4182593876
        RIMP2         total energy =      -630.5952808117 a.u.

                    Orbital Energies (a.u.)
 --------------------------------------------------------------

 Alpha MOs
 -- Occupied --
-91.9779 -11.2851 -11.2498 -11.2476 -11.2268 -11.2238 -11.2221  -8.9778
 -6.6588  -6.6582  -6.6576  -1.1621  -1.0565  -0.9976  -0.9403  -0.8826
 -0.7438  -0.7197  -0.6473  -0.5893  -0.5775  -0.5696  -0.5536  -0.5452
 -0.5079  -0.4906  -0.4657  -0.4567  -0.3383  -0.2879

          Ground-State Mulliken Net Atomic Charges

     Atom                 Charge (a.u.)
  ----------------------------------------
      1 C                     0.056548
      2 C                    -0.307670
      3 C                     0.054128
      4 H                     0.174819
      5 C                    -0.281631
      6 S                     0.001332
      7 C                    -0.271544
      8 H                     0.101422
      9 H                     0.107511
     10 H                     0.106926
     11 C                    -0.381312
     12 H                     0.151569
     13 H                     0.160001
     14 H                     0.135560
     15 H                     0.192341
  ----------------------------------------
  Sum of atomic charges =     0.000000

                    Cartesian Multipole Moments
 -----------------------------------------------------------------
    Charge (ESU x 10^10)
                -0.0000
    Dipole Moment (Debye)
         X       1.0988      Y      -0.7353      Z       1.5463
       Tot       2.0344
    Quadrupole Moments (Debye-Ang)
        XX     -53.7464     XY       1.4054     YY     -42.9224
        XZ       0.0537     YZ       0.1612     ZZ     -48.5693

 Total job time:  161.89s(wall), 159.34s(cpu)
        *  Thank you very much for using Q-Chem.  Have a nice day.  *
