 Q-Chem 5.4, Q-Chem, Inc., Pleasanton, CA (2021)
 Q-Chem 5.4.0 for Intel X86 EM64T Linux

User input:
--------------------------------------------------------------
$molecule
0 1
C	-0.435466	-0.417594	0.010180
C	0.119634	0.243906	1.109580
C	1.009234	1.304106	0.786880
H	-0.117366	-0.038594	2.146280
C	1.151134	1.473106	-0.602320
S	0.170334	0.304306	-1.476620
C	1.708434	2.137306	1.824780
H	1.434834	1.811306	2.846880
H	1.445434	3.212106	1.736380
H	2.812634	2.064906	1.736380
C	-0.435466	-1.858294	0.010180
H	-0.435566	-1.858494	1.090180
H	0.383734	-2.562094	0.010280
H	-1.382566	-2.377194	0.010180
H	1.761234	2.200206	-1.151420
$end

$rem
JOBTYPE		SP
EXCHANGE	HF
CORRELATION	pRIMP2
BASIS		cc-pvtz
METHOD		rimp2
AUX_BASIS	rimp2-cc-pvtz
SOLVENT_METHOD	PCM
PURECART	11111
SYMMETRY	false
MEM_TOTAL	110000
SCF_CONVERGENCE = 6
THRESH=10
$end

$solvent
dielectric 4.90
$end
--------------------------------------------------------------

             Standard Nuclear Orientation (Angstroms)
    I     Atom           X                Y                Z
 ----------------------------------------------------------------
    1      C      -0.4354660000    -0.4175940000     0.0101800000
    2      C       0.1196340000     0.2439060000     1.1095800000
    3      C       1.0092340000     1.3041060000     0.7868800000
    4      H      -0.1173660000    -0.0385940000     2.1462800000
    5      C       1.1511340000     1.4731060000    -0.6023200000
    6      S       0.1703340000     0.3043060000    -1.4766200000
    7      C       1.7084340000     2.1373060000     1.8247800000
    8      H       1.4348340000     1.8113060000     2.8468800000
    9      H       1.4454340000     3.2121060000     1.7363800000
   10      H       2.8126340000     2.0649060000     1.7363800000
   11      C      -0.4354660000    -1.8582940000     0.0101800000
   12      H      -0.4355660000    -1.8584940000     1.0901800000
   13      H       0.3837340000    -2.5620940000     0.0102800000
   14      H      -1.3825660000    -2.3771940000     0.0101800000
   15      H       1.7612340000     2.2002060000    -1.1514200000
 ----------------------------------------------------------------

   10    -629.3897362047      6.55e-07  Convergence criterion met
 Total energy in the final basis set =     -629.3897362047
        RIMP2         total energy =      -630.5749923492 a.u.

                    Orbital Energies (a.u.)
 --------------------------------------------------------------

 Alpha MOs
 -- Occupied --
-91.9736 -11.2689 -11.2618 -11.2479 -11.2431 -11.2283 -11.2103  -8.9741
 -6.6550  -6.6542  -6.6539  -1.1662  -1.0539  -1.0000  -0.9367  -0.8840
 -0.7443  -0.7289  -0.6459  -0.5875  -0.5816  -0.5701  -0.5552  -0.5419
 -0.5164  -0.4721  -0.4656  -0.4312  -0.3355  -0.3055

          Ground-State Mulliken Net Atomic Charges

     Atom                 Charge (a.u.)
  ----------------------------------------
      1 C                    -0.024939
      2 C                    -0.215075
      3 C                     0.022112
      4 H                     0.177007
      5 C                    -0.223536
      6 S                     0.000521
      7 C                    -0.269176
      8 H                     0.101367
      9 H                     0.106917
     10 H                     0.106027
     11 C                    -0.352565
     12 H                     0.112905
     13 H                     0.150916
     14 H                     0.112958
     15 H                     0.194563
  ----------------------------------------
  Sum of atomic charges =     0.000000

                    Cartesian Multipole Moments
 -----------------------------------------------------------------
    Charge (ESU x 10^10)
                -0.0000
    Dipole Moment (Debye)
         X       1.3754      Y       0.2575      Z       2.2334
       Tot       2.6356
    Quadrupole Moments (Debye-Ang)
        XX     -50.3977     XY       4.2470     YY     -46.5569
        XZ      -0.2763     YZ      -1.0899     ZZ     -48.5974

 Total job time:  158.83s(wall), 156.89s(cpu)
        *  Thank you very much for using Q-Chem.  Have a nice day.  *
