 Q-Chem 5.4, Q-Chem, Inc., Pleasanton, CA (2021)
 Q-Chem 5.4.0 for Intel X86 EM64T Linux

User input:
--------------------------------------------------------------
$molecule
0 1
C	-0.120736	-0.566007	0.018946
C	0.029264	0.284493	1.118346
C	0.269564	1.647393	0.795646
H	-0.034836	-0.078707	2.155046
C	0.307964	1.864693	-0.593554
S	0.042964	0.362093	-1.467854
C	0.458464	2.718593	1.833546
H	0.384564	2.299393	2.855646
H	-0.306736	3.517893	1.745146
H	1.450964	3.207893	1.745146
C	-0.120736	-2.006707	0.018946
H	0.419364	-2.006907	-0.916254
H	-0.830136	-2.710507	-0.390654
H	0.699464	-2.525607	0.492546
H	0.472764	2.799393	-1.142654
$end

$rem
JOBTYPE		SP
EXCHANGE	HF
CORRELATION	pRIMP2
BASIS		cc-pvtz
METHOD		rimp2
AUX_BASIS	rimp2-cc-pvtz
SOLVENT_METHOD	PCM
PURECART	11111
SYMMETRY	false
MEM_TOTAL	110000
SCF_CONVERGENCE = 6
THRESH=10
$end

$solvent
dielectric 4.90
$end
--------------------------------------------------------------

   10    -629.4202055755      5.87e-07  Convergence criterion met
 Total energy in the final basis set =     -629.4202055755
        RIMP2         total energy =      -630.5975909031 a.u.
 Total job time:  157.35s(wall), 155.41s(cpu)
        *  Thank you very much for using Q-Chem.  Have a nice day.  *
 Q-Chem 5.4, Q-Chem, Inc., Pleasanton, CA (2021)
 Q-Chem 5.4.0 for Intel X86 EM64T Linux

User input:
--------------------------------------------------------------
$molecule
0 1
C	-0.120736	-0.566007	0.018946
C	0.029264	0.284493	1.118346
C	0.269564	1.647393	0.795646
H	-0.034836	-0.078707	2.155046
C	0.307964	1.864693	-0.593554
S	0.042964	0.362093	-1.467854
C	0.458464	2.718593	1.833546
H	0.384564	2.299393	2.855646
H	-0.306736	3.517893	1.745146
H	1.450964	3.207893	1.745146
C	-0.120736	-2.006707	0.018946
H	0.419364	-2.006907	-0.916254
H	-0.830136	-2.710507	-0.390654
H	0.699464	-2.525607	0.492546
H	0.472764	2.799393	-1.142654
$end

$rem
JOBTYPE		SP
EXCHANGE	HF
CORRELATION	pRIMP2
BASIS		cc-pvtz
METHOD		rimp2
AUX_BASIS	rimp2-cc-pvtz
SOLVENT_METHOD	PCM
PURECART	11111
SYMMETRY	false
MEM_TOTAL	110000
SCF_CONVERGENCE = 6
THRESH=10
$end

$solvent
dielectric 4.90
$end
--------------------------------------------------------------

             Standard Nuclear Orientation (Angstroms)
    I     Atom           X                Y                Z
 ----------------------------------------------------------------
    1      C      -0.1207360000    -0.5660070000     0.0189460000
    2      C       0.0292640000     0.2844930000     1.1183460000
    3      C       0.2695640000     1.6473930000     0.7956460000
    4      H      -0.0348360000    -0.0787070000     2.1550460000
    5      C       0.3079640000     1.8646930000    -0.5935540000
    6      S       0.0429640000     0.3620930000    -1.4678540000
    7      C       0.4584640000     2.7185930000     1.8335460000
    8      H       0.3845640000     2.2993930000     2.8556460000
    9      H      -0.3067360000     3.5178930000     1.7451460000
   10      H       1.4509640000     3.2078930000     1.7451460000
   11      C      -0.1207360000    -2.0067070000     0.0189460000
   12      H       0.4193640000    -2.0069070000    -0.9162540000
   13      H      -0.8301360000    -2.7105070000    -0.3906540000
   14      H       0.6994640000    -2.5256070000     0.4925460000
   15      H       0.4727640000     2.7993930000    -1.1426540000
 ----------------------------------------------------------------

   10    -629.4202055755      5.87e-07  Convergence criterion met
 Total energy in the final basis set =     -629.4202055755
        RIMP2         total energy =      -630.5975909031 a.u.

                    Orbital Energies (a.u.)
 --------------------------------------------------------------

 Alpha MOs
 -- Occupied --
-91.9786 -11.2773 -11.2562 -11.2469 -11.2289 -11.2268 -11.2169  -8.9786
 -6.6596  -6.6591  -6.6584  -1.1612  -1.0555  -0.9955  -0.9455  -0.8816
 -0.7474  -0.7187  -0.6476  -0.5914  -0.5760  -0.5662  -0.5521  -0.5476
 -0.5084  -0.4881  -0.4646  -0.4475  -0.3388  -0.2995

          Ground-State Mulliken Net Atomic Charges

     Atom                 Charge (a.u.)
  ----------------------------------------
      1 C                     0.057040
      2 C                    -0.280515
      3 C                     0.046239
      4 H                     0.180284
      5 C                    -0.261379
      6 S                    -0.003197
      7 C                    -0.272666
      8 H                     0.101621
      9 H                     0.107244
     10 H                     0.106923
     11 C                    -0.373622
     12 H                     0.119478
     13 H                     0.144930
     14 H                     0.133163
     15 H                     0.194458
  ----------------------------------------
  Sum of atomic charges =     0.000000

                    Cartesian Multipole Moments
 -----------------------------------------------------------------
    Charge (ESU x 10^10)
                -0.0000
    Dipole Moment (Debye)
         X       0.6010      Y      -0.1392      Z       0.9213
       Tot       1.1088
    Quadrupole Moments (Debye-Ang)
        XX     -53.7096     XY       0.8537     YY     -42.4041
        XZ       0.3720     YZ       1.4770     ZZ     -48.7534

 Total job time:  156.42s(wall), 154.86s(cpu)
        *  Thank you very much for using Q-Chem.  Have a nice day.  *
