 Q-Chem 5.4, Q-Chem, Inc., Pleasanton, CA (2021)
 Q-Chem 5.4.0 for Intel X86 EM64T Linux

User input:
--------------------------------------------------------------
$molecule
0 1
C	-0.122174	-0.566007	0.012832
C	0.027826	0.284493	1.112232
C	0.268126	1.647393	0.789532
H	-0.036274	-0.078707	2.148932
C	0.306526	1.864693	-0.599668
S	0.041526	0.362093	-1.473968
C	0.457026	2.718593	1.827432
H	0.383126	2.299393	2.849532
H	-0.308174	3.517893	1.739032
H	1.449526	3.207893	1.739032
C	-0.122174	-2.006707	0.012832
H	0.892626	-2.006907	0.382332
H	0.158026	-2.710507	-0.756968
H	-0.446074	-2.525607	0.902832
H	0.471326	2.799393	-1.148768
$end

$rem
JOBTYPE		SP
EXCHANGE	HF
CORRELATION	pRIMP2
BASIS		cc-pvtz
METHOD		rimp2
AUX_BASIS	rimp2-cc-pvtz
SOLVENT_METHOD	PCM
PURECART	11111
SYMMETRY	false
MEM_TOTAL	110000
SCF_CONVERGENCE = 6
THRESH=10
$end

$solvent
dielectric 4.90
$end
--------------------------------------------------------------

             Standard Nuclear Orientation (Angstroms)
    I     Atom           X                Y                Z
 ----------------------------------------------------------------
    1      C      -0.1221740000    -0.5660070000     0.0128320000
    2      C       0.0278260000     0.2844930000     1.1122320000
    3      C       0.2681260000     1.6473930000     0.7895320000
    4      H      -0.0362740000    -0.0787070000     2.1489320000
    5      C       0.3065260000     1.8646930000    -0.5996680000
    6      S       0.0415260000     0.3620930000    -1.4739680000
    7      C       0.4570260000     2.7185930000     1.8274320000
    8      H       0.3831260000     2.2993930000     2.8495320000
    9      H      -0.3081740000     3.5178930000     1.7390320000
   10      H       1.4495260000     3.2078930000     1.7390320000
   11      C      -0.1221740000    -2.0067070000     0.0128320000
   12      H       0.8926260000    -2.0069070000     0.3823320000
   13      H       0.1580260000    -2.7105070000    -0.7569680000
   14      H      -0.4460740000    -2.5256070000     0.9028320000
   15      H       0.4713260000     2.7993930000    -1.1487680000
 ----------------------------------------------------------------

   10    -629.4229275833      6.79e-07  Convergence criterion met
 Total energy in the final basis set =     -629.4229275833
        RIMP2         total energy =      -630.5990697466 a.u.

                    Orbital Energies (a.u.)
 --------------------------------------------------------------

 Alpha MOs
 -- Occupied --
-91.9781 -11.2860 -11.2486 -11.2472 -11.2266 -11.2235 -11.2218  -8.9779
 -6.6589  -6.6583  -6.6577  -1.1607  -1.0561  -0.9981  -0.9404  -0.8831
 -0.7430  -0.7194  -0.6479  -0.5901  -0.5746  -0.5711  -0.5552  -0.5445
 -0.5082  -0.4898  -0.4667  -0.4553  -0.3377  -0.2890

          Ground-State Mulliken Net Atomic Charges

     Atom                 Charge (a.u.)
  ----------------------------------------
      1 C                     0.066493
      2 C                    -0.301503
      3 C                     0.047249
      4 H                     0.174864
      5 C                    -0.281029
      6 S                     0.000235
      7 C                    -0.273737
      8 H                     0.101185
      9 H                     0.107327
     10 H                     0.107243
     11 C                    -0.388608
     12 H                     0.147848
     13 H                     0.161633
     14 H                     0.138707
     15 H                     0.192092
  ----------------------------------------
  Sum of atomic charges =     0.000000

                    Cartesian Multipole Moments
 -----------------------------------------------------------------
    Charge (ESU x 10^10)
                -0.0000
    Dipole Moment (Debye)
         X       0.8751      Y      -0.7500      Z       1.6542
       Tot       2.0161
    Quadrupole Moments (Debye-Ang)
        XX     -54.2206     XY       0.0129     YY     -42.1045
        XZ      -0.1025     YZ      -0.0385     ZZ     -48.6172

 Total job time:  159.15s(wall), 156.35s(cpu)
        *  Thank you very much for using Q-Chem.  Have a nice day.  *
