 Q-Chem 5.4, Q-Chem, Inc., Pleasanton, CA (2021)
 Q-Chem 5.4.0 for Intel X86 EM64T Linux

User input:
--------------------------------------------------------------
$molecule
0 1
C	-0.114465	-0.566007	0.018592
C	0.035535	0.284493	1.117992
C	0.275835	1.647393	0.795292
H	-0.028565	-0.078707	2.154692
C	0.314235	1.864693	-0.593908
S	0.049235	0.362093	-1.468208
C	0.464735	2.718593	1.833192
H	0.390835	2.299393	2.855292
H	-0.300465	3.517893	1.744792
H	1.457235	3.207893	1.744792
C	-0.114465	-2.006707	0.018592
H	-0.941765	-2.006907	-0.675708
H	-0.641065	-2.710507	0.646092
H	0.494335	-2.525607	-0.707008
H	0.479035	2.799393	-1.143008
$end

$rem
JOBTYPE		SP
EXCHANGE	HF
CORRELATION	pRIMP2
BASIS		cc-pvtz
METHOD		rimp2
AUX_BASIS	rimp2-cc-pvtz
SOLVENT_METHOD	PCM
PURECART	11111
SYMMETRY	false
MEM_TOTAL	110000
SCF_CONVERGENCE = 6
THRESH=10
$end

$solvent
dielectric 4.90
$end
--------------------------------------------------------------

   10    -629.4200483395      6.17e-07  Convergence criterion met
 Total energy in the final basis set =     -629.4200483395
        RIMP2         total energy =      -630.5966102518 a.u.
 Total job time:  156.69s(wall), 154.84s(cpu)
        *  Thank you very much for using Q-Chem.  Have a nice day.  *
 Q-Chem 5.4, Q-Chem, Inc., Pleasanton, CA (2021)
 Q-Chem 5.4.0 for Intel X86 EM64T Linux

User input:
--------------------------------------------------------------
$molecule
0 1
C	-0.114465	-0.566007	0.018592
C	0.035535	0.284493	1.117992
C	0.275835	1.647393	0.795292
H	-0.028565	-0.078707	2.154692
C	0.314235	1.864693	-0.593908
S	0.049235	0.362093	-1.468208
C	0.464735	2.718593	1.833192
H	0.390835	2.299393	2.855292
H	-0.300465	3.517893	1.744792
H	1.457235	3.207893	1.744792
C	-0.114465	-2.006707	0.018592
H	-0.941765	-2.006907	-0.675708
H	-0.641065	-2.710507	0.646092
H	0.494335	-2.525607	-0.707008
H	0.479035	2.799393	-1.143008
$end

$rem
JOBTYPE		SP
EXCHANGE	HF
CORRELATION	pRIMP2
BASIS		cc-pvtz
METHOD		rimp2
AUX_BASIS	rimp2-cc-pvtz
SOLVENT_METHOD	PCM
PURECART	11111
SYMMETRY	false
MEM_TOTAL	110000
SCF_CONVERGENCE = 6
THRESH=10
$end

$solvent
dielectric 4.90
$end
--------------------------------------------------------------

             Standard Nuclear Orientation (Angstroms)
    I     Atom           X                Y                Z
 ----------------------------------------------------------------
    1      C      -0.1144650000    -0.5660070000     0.0185920000
    2      C       0.0355350000     0.2844930000     1.1179920000
    3      C       0.2758350000     1.6473930000     0.7952920000
    4      H      -0.0285650000    -0.0787070000     2.1546920000
    5      C       0.3142350000     1.8646930000    -0.5939080000
    6      S       0.0492350000     0.3620930000    -1.4682080000
    7      C       0.4647350000     2.7185930000     1.8331920000
    8      H       0.3908350000     2.2993930000     2.8552920000
    9      H      -0.3004650000     3.5178930000     1.7447920000
   10      H       1.4572350000     3.2078930000     1.7447920000
   11      C      -0.1144650000    -2.0067070000     0.0185920000
   12      H      -0.9417650000    -2.0069070000    -0.6757080000
   13      H      -0.6410650000    -2.7105070000     0.6460920000
   14      H       0.4943350000    -2.5256070000    -0.7070080000
   15      H       0.4790350000     2.7993930000    -1.1430080000
 ----------------------------------------------------------------

   10    -629.4200483395      6.17e-07  Convergence criterion met
 Total energy in the final basis set =     -629.4200483395
        RIMP2         total energy =      -630.5966102518 a.u.

                    Orbital Energies (a.u.)
 --------------------------------------------------------------

 Alpha MOs
 -- Occupied --
-91.9793 -11.2799 -11.2538 -11.2468 -11.2265 -11.2258 -11.2186  -8.9792
 -6.6602  -6.6597  -6.6590  -1.1605  -1.0556  -0.9958  -0.9450  -0.8819
 -0.7460  -0.7183  -0.6484  -0.5896  -0.5748  -0.5664  -0.5530  -0.5471
 -0.5086  -0.4894  -0.4646  -0.4527  -0.3390  -0.2940

          Ground-State Mulliken Net Atomic Charges

     Atom                 Charge (a.u.)
  ----------------------------------------
      1 C                     0.039376
      2 C                    -0.268604
      3 C                     0.035421
      4 H                     0.180416
      5 C                    -0.259637
      6 S                    -0.006037
      7 C                    -0.273811
      8 H                     0.101419
      9 H                     0.107039
     10 H                     0.107100
     11 C                    -0.374760
     12 H                     0.124339
     13 H                     0.160382
     14 H                     0.132818
     15 H                     0.194538
  ----------------------------------------
  Sum of atomic charges =     0.000000

                    Cartesian Multipole Moments
 -----------------------------------------------------------------
    Charge (ESU x 10^10)
                -0.0000
    Dipole Moment (Debye)
         X      -0.2888      Y      -0.3500      Z       1.0057
       Tot       1.1033
    Quadrupole Moments (Debye-Ang)
        XX     -53.7579     XY       2.7500     YY     -42.1624
        XZ      -0.2574     YZ       1.0231     ZZ     -48.6912

 Total job time:  158.46s(wall), 156.45s(cpu)
        *  Thank you very much for using Q-Chem.  Have a nice day.  *
