 Q-Chem 5.4, Q-Chem, Inc., Pleasanton, CA (2021)
 Q-Chem 5.4.0 for Intel X86 EM64T Linux

User input:
--------------------------------------------------------------
$molecule
0 1
C	-0.290781	-0.512746	0.012353
C	0.074219	0.269954	1.111753
C	0.659119	1.524154	0.789053
H	-0.081681	-0.064346	2.148453
C	0.752419	1.724154	-0.600147
S	0.107519	0.341354	-1.474447
C	1.118819	2.509954	1.826953
H	0.938919	2.124254	2.849053
H	0.586519	3.480154	1.738553
H	2.204119	2.725854	1.738553
C	-0.290781	-1.953446	0.012353
H	0.536519	-1.953146	0.706653
H	-0.817381	-2.657246	0.639853
H	0.318019	-2.472346	-0.713247
H	1.153519	2.584454	-1.149247
$end

$rem
JOBTYPE		SP
EXCHANGE	HF
CORRELATION	pRIMP2
BASIS		cc-pvtz
METHOD		rimp2
AUX_BASIS	rimp2-cc-pvtz
SOLVENT_METHOD	PCM
PURECART	11111
SYMMETRY	false
MEM_TOTAL	110000
SCF_CONVERGENCE = 6
THRESH=10
$end

$solvent
dielectric 4.90
$end
--------------------------------------------------------------

             Standard Nuclear Orientation (Angstroms)
    I     Atom           X                Y                Z
 ----------------------------------------------------------------
    1      C      -0.2907810000    -0.5127460000     0.0123530000
    2      C       0.0742190000     0.2699540000     1.1117530000
    3      C       0.6591190000     1.5241540000     0.7890530000
    4      H      -0.0816810000    -0.0643460000     2.1484530000
    5      C       0.7524190000     1.7241540000    -0.6001470000
    6      S       0.1075190000     0.3413540000    -1.4744470000
    7      C       1.1188190000     2.5099540000     1.8269530000
    8      H       0.9389190000     2.1242540000     2.8490530000
    9      H       0.5865190000     3.4801540000     1.7385530000
   10      H       2.2041190000     2.7258540000     1.7385530000
   11      C      -0.2907810000    -1.9534460000     0.0123530000
   12      H       0.5365190000    -1.9531460000     0.7066530000
   13      H      -0.8173810000    -2.6572460000     0.6398530000
   14      H       0.3180190000    -2.4723460000    -0.7132470000
   15      H       1.1535190000     2.5844540000    -1.1492470000
 ----------------------------------------------------------------

   10    -629.4096068575      5.55e-07  Convergence criterion met
 Total energy in the final basis set =     -629.4096068575
        RIMP2         total energy =      -630.5894589897 a.u.

                    Orbital Energies (a.u.)
 --------------------------------------------------------------

 Alpha MOs
 -- Occupied --
-91.9788 -11.2794 -11.2538 -11.2475 -11.2274 -11.2271 -11.2169  -8.9786
 -6.6595  -6.6589  -6.6584  -1.1629  -1.0552  -0.9983  -0.9389  -0.8828
 -0.7431  -0.7222  -0.6479  -0.5895  -0.5745  -0.5682  -0.5575  -0.5437
 -0.5092  -0.4836  -0.4670  -0.4522  -0.3362  -0.2922

          Ground-State Mulliken Net Atomic Charges

     Atom                 Charge (a.u.)
  ----------------------------------------
      1 C                     0.035202
      2 C                    -0.265433
      3 C                     0.035909
      4 H                     0.174770
      5 C                    -0.265201
      6 S                     0.004249
      7 C                    -0.271608
      8 H                     0.101393
      9 H                     0.107397
     10 H                     0.106301
     11 C                    -0.389297
     12 H                     0.146169
     13 H                     0.149528
     14 H                     0.137885
     15 H                     0.192735
  ----------------------------------------
  Sum of atomic charges =     0.000000

                    Cartesian Multipole Moments
 -----------------------------------------------------------------
    Charge (ESU x 10^10)
                -0.0000
    Dipole Moment (Debye)
         X       1.1137      Y      -0.4090      Z       1.8691
       Tot       2.2138
    Quadrupole Moments (Debye-Ang)
        XX     -52.9988     XY       2.2939     YY     -43.9907
        XZ      -0.2440     YZ      -0.7646     ZZ     -48.4891

 Total job time:  158.55s(wall), 156.83s(cpu)
        *  Thank you very much for using Q-Chem.  Have a nice day.  *
