 Q-Chem 5.4, Q-Chem, Inc., Pleasanton, CA (2021)
 Q-Chem 5.4.0 for Intel X86 EM64T Linux

User input:
--------------------------------------------------------------
$molecule
0 1
C	-0.361674	-0.487811	0.014457
C	0.070126	0.260089	1.113857
C	0.762126	1.458589	0.791157
H	-0.114274	-0.059311	2.150557
C	0.872426	1.649689	-0.598043
S	0.109526	0.328289	-1.472343
C	1.306026	2.400589	1.829057
H	1.093226	2.031989	2.851157
H	0.860326	3.413389	1.740657
H	2.406026	2.520989	1.740657
C	-0.111474	-1.906611	0.014457
H	0.952126	-1.719311	0.014557
H	0.010726	-2.599711	-0.804743
H	-0.021374	-2.417711	0.961557
H	1.347126	2.471689	-1.147143
$end

$rem
JOBTYPE		SP
EXCHANGE	HF
CORRELATION	pRIMP2
BASIS		cc-pvtz
METHOD		rimp2
AUX_BASIS	rimp2-cc-pvtz
SOLVENT_METHOD	PCM
PURECART	11111
SYMMETRY	false
MEM_TOTAL	110000
SCF_CONVERGENCE = 6
THRESH=10
$end

$solvent
dielectric 4.90
$end
--------------------------------------------------------------

             Standard Nuclear Orientation (Angstroms)
    I     Atom           X                Y                Z
 ----------------------------------------------------------------
    1      C      -0.3616740000    -0.4878110000     0.0144570000
    2      C       0.0701260000     0.2600890000     1.1138570000
    3      C       0.7621260000     1.4585890000     0.7911570000
    4      H      -0.1142740000    -0.0593110000     2.1505570000
    5      C       0.8724260000     1.6496890000    -0.5980430000
    6      S       0.1095260000     0.3282890000    -1.4723430000
    7      C       1.3060260000     2.4005890000     1.8290570000
    8      H       1.0932260000     2.0319890000     2.8511570000
    9      H       0.8603260000     3.4133890000     1.7406570000
   10      H       2.4060260000     2.5209890000     1.7406570000
   11      C      -0.1114740000    -1.9066110000     0.0144570000
   12      H       0.9521260000    -1.7193110000     0.0145570000
   13      H       0.0107260000    -2.5997110000    -0.8047430000
   14      H      -0.0213740000    -2.4177110000     0.9615570000
   15      H       1.3471260000     2.4716890000    -1.1471430000
 ----------------------------------------------------------------

   10    -629.3944002525      5.89e-07  Convergence criterion met
 Total energy in the final basis set =     -629.3944002525
        RIMP2         total energy =      -630.5772018762 a.u.

                    Orbital Energies (a.u.)
 --------------------------------------------------------------

 Alpha MOs
 -- Occupied --
-91.9760 -11.2766 -11.2593 -11.2490 -11.2301 -11.2277 -11.2194  -8.9764
 -6.6574  -6.6567  -6.6562  -1.1676  -1.0572  -0.9971  -0.9391  -0.8817
 -0.7465  -0.7229  -0.6454  -0.5877  -0.5827  -0.5681  -0.5523  -0.5459
 -0.5087  -0.4927  -0.4601  -0.4529  -0.3391  -0.2873

          Ground-State Mulliken Net Atomic Charges

     Atom                 Charge (a.u.)
  ----------------------------------------
      1 C                     0.020839
      2 C                    -0.273427
      3 C                     0.043948
      4 H                     0.176416
      5 C                    -0.259336
      6 S                     0.001391
      7 C                    -0.269195
      8 H                     0.101976
      9 H                     0.107809
     10 H                     0.105956
     11 C                    -0.371211
     12 H                     0.143234
     13 H                     0.151069
     14 H                     0.126885
     15 H                     0.193645
  ----------------------------------------
  Sum of atomic charges =     0.000000

                    Cartesian Multipole Moments
 -----------------------------------------------------------------
    Charge (ESU x 10^10)
                -0.0000
    Dipole Moment (Debye)
         X       1.7181      Y      -0.1599      Z       1.5283
       Tot       2.3050
    Quadrupole Moments (Debye-Ang)
        XX     -52.6281     XY       2.2204     YY     -44.9996
        XZ       0.1144     YZ       0.2429     ZZ     -48.3520

 Total job time:  164.18s(wall), 160.61s(cpu)
        *  Thank you very much for using Q-Chem.  Have a nice day.  *
