 Q-Chem 5.4, Q-Chem, Inc., Pleasanton, CA (2021)
 Q-Chem 5.4.0 for Intel X86 EM64T Linux

User input:
--------------------------------------------------------------
$molecule
0 1
C	-0.591833	-0.237127	0.012832
C	0.156067	0.194673	1.112232
C	1.354567	0.886573	0.789532
H	-0.163333	0.010273	2.148932
C	1.545667	0.996873	-0.599668
S	0.224367	0.234073	-1.473968
C	2.296667	1.430473	1.827432
H	1.927967	1.217573	2.849532
H	2.417067	2.530373	1.739032
H	3.309467	0.984673	1.739032
C	-0.591833	-1.677827	0.012832
H	0.422967	-1.678027	0.382332
H	-0.311633	-2.381627	-0.756968
H	-0.915733	-2.196727	0.902832
H	2.367767	1.471473	-1.148768
$end

$rem
JOBTYPE		SP
EXCHANGE	HF
CORRELATION	pRIMP2
BASIS		cc-pvtz
METHOD		rimp2
AUX_BASIS	rimp2-cc-pvtz
SOLVENT_METHOD	PCM
PURECART	11111
SYMMETRY	false
MEM_TOTAL	110000
SCF_CONVERGENCE = 6
THRESH=10
$end

$solvent
dielectric 4.90
$end
--------------------------------------------------------------

             Standard Nuclear Orientation (Angstroms)
    I     Atom           X                Y                Z
 ----------------------------------------------------------------
    1      C      -0.5918330000    -0.2371270000     0.0128320000
    2      C       0.1560670000     0.1946730000     1.1122320000
    3      C       1.3545670000     0.8865730000     0.7895320000
    4      H      -0.1633330000     0.0102730000     2.1489320000
    5      C       1.5456670000     0.9968730000    -0.5996680000
    6      S       0.2243670000     0.2340730000    -1.4739680000
    7      C       2.2966670000     1.4304730000     1.8274320000
    8      H       1.9279670000     1.2175730000     2.8495320000
    9      H       2.4170670000     2.5303730000     1.7390320000
   10      H       3.3094670000     0.9846730000     1.7390320000
   11      C      -0.5918330000    -1.6778270000     0.0128320000
   12      H       0.4229670000    -1.6780270000     0.3823320000
   13      H      -0.3116330000    -2.3816270000    -0.7569680000
   14      H      -0.9157330000    -2.1967270000     0.9028320000
   15      H       2.3677670000     1.4714730000    -1.1487680000
 ----------------------------------------------------------------

   11    -629.3418473707      6.94e-07  Convergence criterion met
 Total energy in the final basis set =     -629.3418473707
        RIMP2         total energy =      -630.5359376816 a.u.

                    Orbital Energies (a.u.)
 --------------------------------------------------------------

 Alpha MOs
 -- Occupied --
-91.9791 -11.2792 -11.2542 -11.2513 -11.2443 -11.2295 -11.2111  -8.9795
 -6.6603  -6.6595  -6.6592  -1.1786  -1.0589  -1.0011  -0.9345  -0.8817
 -0.7506  -0.7313  -0.6449  -0.5920  -0.5824  -0.5717  -0.5533  -0.5465
 -0.5136  -0.4848  -0.4591  -0.4399  -0.3352  -0.2869

          Ground-State Mulliken Net Atomic Charges

     Atom                 Charge (a.u.)
  ----------------------------------------
      1 C                    -0.095928
      2 C                    -0.127817
      3 C                    -0.023919
      4 H                     0.183933
      5 C                    -0.206160
      6 S                     0.030175
      7 C                    -0.266934
      8 H                     0.102806
      9 H                     0.107547
     10 H                     0.103834
     11 C                    -0.371943
     12 H                     0.111660
     13 H                     0.146586
     14 H                     0.107929
     15 H                     0.198230
  ----------------------------------------
  Sum of atomic charges =     0.000000

                    Cartesian Multipole Moments
 -----------------------------------------------------------------
    Charge (ESU x 10^10)
                -0.0000
    Dipole Moment (Debye)
         X       2.7398      Y      -0.0666      Z       1.7040
       Tot       3.2272
    Quadrupole Moments (Debye-Ang)
        XX     -48.9656     XY       3.6636     YY     -50.0223
        XZ      -0.4278     YZ      -0.2971     ZZ     -47.4734

 Total job time:  181.59s(wall), 179.01s(cpu)
        *  Thank you very much for using Q-Chem.  Have a nice day.  *
