 Q-Chem 5.4, Q-Chem, Inc., Pleasanton, CA (2021)
 Q-Chem 5.4.0 for Intel X86 EM64T Linux

User input:
--------------------------------------------------------------
$molecule
0 1
C	-0.122490	-0.566010	0.016439
C	0.027510	0.284490	1.115839
C	0.267810	1.647390	0.793139
H	-0.036590	-0.078710	2.152539
C	0.306210	1.864690	-0.596061
S	0.041210	0.362090	-1.470361
C	0.456710	2.718590	1.831039
H	0.382810	2.299390	2.853139
H	-0.308490	3.517890	1.742639
H	1.449210	3.207890	1.742639
C	-0.122490	-2.006710	0.016439
H	0.941110	-2.006410	-0.170961
H	0.019710	-2.710510	0.823239
H	-0.286990	-2.525610	-0.916261
H	0.471010	2.799390	-1.145161
$end

$rem
JOBTYPE		SP
EXCHANGE	HF
CORRELATION	pRIMP2
BASIS		cc-pvtz
METHOD		rimp2
AUX_BASIS	rimp2-cc-pvtz
SOLVENT_METHOD	PCM
PURECART	11111
SYMMETRY	false
MEM_TOTAL	110000
SCF_CONVERGENCE = 6
THRESH=10
$end

$solvent
dielectric 4.90
$end
--------------------------------------------------------------

   10    -629.4238477336      7.21e-07  Convergence criterion met
 Total energy in the final basis set =     -629.4238477336
        RIMP2         total energy =      -630.5988237480 a.u.
 Total job time:  157.71s(wall), 155.90s(cpu)
        *  Thank you very much for using Q-Chem.  Have a nice day.  *
 Q-Chem 5.4, Q-Chem, Inc., Pleasanton, CA (2021)
 Q-Chem 5.4.0 for Intel X86 EM64T Linux

User input:
--------------------------------------------------------------
$molecule
0 1
C	-0.122490	-0.566010	0.016439
C	0.027510	0.284490	1.115839
C	0.267810	1.647390	0.793139
H	-0.036590	-0.078710	2.152539
C	0.306210	1.864690	-0.596061
S	0.041210	0.362090	-1.470361
C	0.456710	2.718590	1.831039
H	0.382810	2.299390	2.853139
H	-0.308490	3.517890	1.742639
H	1.449210	3.207890	1.742639
C	-0.122490	-2.006710	0.016439
H	0.941110	-2.006410	-0.170961
H	0.019710	-2.710510	0.823239
H	-0.286990	-2.525610	-0.916261
H	0.471010	2.799390	-1.145161
$end

$rem
JOBTYPE		SP
EXCHANGE	HF
CORRELATION	pRIMP2
BASIS		cc-pvtz
METHOD		rimp2
AUX_BASIS	rimp2-cc-pvtz
SOLVENT_METHOD	PCM
PURECART	11111
SYMMETRY	false
MEM_TOTAL	110000
SCF_CONVERGENCE = 6
THRESH=10
$end

$solvent
dielectric 4.90
$end
--------------------------------------------------------------

             Standard Nuclear Orientation (Angstroms)
    I     Atom           X                Y                Z
 ----------------------------------------------------------------
    1      C      -0.1224900000    -0.5660100000     0.0164390000
    2      C       0.0275100000     0.2844900000     1.1158390000
    3      C       0.2678100000     1.6473900000     0.7931390000
    4      H      -0.0365900000    -0.0787100000     2.1525390000
    5      C       0.3062100000     1.8646900000    -0.5960610000
    6      S       0.0412100000     0.3620900000    -1.4703610000
    7      C       0.4567100000     2.7185900000     1.8310390000
    8      H       0.3828100000     2.2993900000     2.8531390000
    9      H      -0.3084900000     3.5178900000     1.7426390000
   10      H       1.4492100000     3.2078900000     1.7426390000
   11      C      -0.1224900000    -2.0067100000     0.0164390000
   12      H       0.9411100000    -2.0064100000    -0.1709610000
   13      H       0.0197100000    -2.7105100000     0.8232390000
   14      H      -0.2869900000    -2.5256100000    -0.9162610000
   15      H       0.4710100000     2.7993900000    -1.1451610000
 ----------------------------------------------------------------

   10    -629.4238477336      7.21e-07  Convergence criterion met
 Total energy in the final basis set =     -629.4238477336
        RIMP2         total energy =      -630.5988237480 a.u.

                    Orbital Energies (a.u.)
 --------------------------------------------------------------

 Alpha MOs
 -- Occupied --
-91.9787 -11.2855 -11.2492 -11.2469 -11.2263 -11.2228 -11.2222  -8.9786
 -6.6596  -6.6590  -6.6584  -1.1608  -1.0567  -0.9966  -0.9428  -0.8821
 -0.7445  -0.7184  -0.6497  -0.5868  -0.5766  -0.5661  -0.5531  -0.5473
 -0.5067  -0.4948  -0.4665  -0.4570  -0.3391  -0.2886

          Ground-State Mulliken Net Atomic Charges

     Atom                 Charge (a.u.)
  ----------------------------------------
      1 C                     0.065413
      2 C                    -0.321101
      3 C                     0.058608
      4 H                     0.176176
      5 C                    -0.282852
      6 S                     0.000931
      7 C                    -0.273318
      8 H                     0.101374
      9 H                     0.107310
     10 H                     0.107324
     11 C                    -0.378439
     12 H                     0.144923
     13 H                     0.164306
     14 H                     0.136146
     15 H                     0.193199
  ----------------------------------------
  Sum of atomic charges =     0.000000

                    Cartesian Multipole Moments
 -----------------------------------------------------------------
    Charge (ESU x 10^10)
                -0.0000
    Dipole Moment (Debye)
         X       0.9132      Y      -0.7384      Z       1.2686
       Tot       1.7288
    Quadrupole Moments (Debye-Ang)
        XX     -54.3027     XY       0.0117     YY     -41.9440
        XZ       0.2148     YZ       0.4304     ZZ     -48.6188

 Total job time:  156.27s(wall), 154.90s(cpu)
        *  Thank you very much for using Q-Chem.  Have a nice day.  *
