 Q-Chem 5.4, Q-Chem, Inc., Pleasanton, CA (2021)
 Q-Chem 5.4.0 for Intel X86 EM64T Linux

User input:
--------------------------------------------------------------
$molecule
0 1
C	-0.058026	-0.573727	0.019788
C	0.017274	0.286573	1.119188
C	0.137874	1.665273	0.796488
H	-0.014826	-0.080827	2.155888
C	0.157174	1.885073	-0.592712
S	0.024174	0.365073	-1.467012
C	0.232774	2.748873	1.834388
H	0.195674	2.324773	2.856488
H	-0.599226	3.478373	1.745988
H	1.178774	3.322873	1.745988
C	-0.058026	-2.014427	0.019788
H	-0.427326	-2.014627	-0.995112
H	-0.827826	-2.718227	0.299888
H	0.831974	-2.533327	-0.304112
H	0.239874	2.830673	-1.141812
$end

$rem
JOBTYPE		SP
EXCHANGE	HF
CORRELATION	pRIMP2
BASIS		cc-pvtz
METHOD		rimp2
AUX_BASIS	rimp2-cc-pvtz
SOLVENT_METHOD	PCM
PURECART	11111
SYMMETRY	false
MEM_TOTAL	110000
SCF_CONVERGENCE = 6
THRESH=10
$end

$solvent
dielectric 4.90
$end
--------------------------------------------------------------

             Standard Nuclear Orientation (Angstroms)
    I     Atom           X                Y                Z
 ----------------------------------------------------------------
    1      C      -0.0580260000    -0.5737270000     0.0197880000
    2      C       0.0172740000     0.2865730000     1.1191880000
    3      C       0.1378740000     1.6652730000     0.7964880000
    4      H      -0.0148260000    -0.0808270000     2.1558880000
    5      C       0.1571740000     1.8850730000    -0.5927120000
    6      S       0.0241740000     0.3650730000    -1.4670120000
    7      C       0.2327740000     2.7488730000     1.8343880000
    8      H       0.1956740000     2.3247730000     2.8564880000
    9      H      -0.5992260000     3.4783730000     1.7459880000
   10      H       1.1787740000     3.3228730000     1.7459880000
   11      C      -0.0580260000    -2.0144270000     0.0197880000
   12      H      -0.4273260000    -2.0146270000    -0.9951120000
   13      H      -0.8278260000    -2.7182270000     0.2998880000
   14      H       0.8319740000    -2.5333270000    -0.3041120000
   15      H       0.2398740000     2.8306730000    -1.1418120000
 ----------------------------------------------------------------

   10    -629.4206591708      5.58e-07  Convergence criterion met
 Total energy in the final basis set =     -629.4206591708
        RIMP2         total energy =      -630.5981620640 a.u.

                    Orbital Energies (a.u.)
 --------------------------------------------------------------

 Alpha MOs
 -- Occupied --
-91.9805 -11.2759 -11.2571 -11.2470 -11.2284 -11.2267 -11.2165  -8.9803
 -6.6613  -6.6608  -6.6601  -1.1609  -1.0552  -0.9954  -0.9462  -0.8817
 -0.7475  -0.7185  -0.6483  -0.5914  -0.5752  -0.5655  -0.5539  -0.5473
 -0.5087  -0.4865  -0.4650  -0.4460  -0.3386  -0.3019

          Ground-State Mulliken Net Atomic Charges

     Atom                 Charge (a.u.)
  ----------------------------------------
      1 C                     0.053064
      2 C                    -0.265788
      3 C                     0.039153
      4 H                     0.180280
      5 C                    -0.258951
      6 S                    -0.002664
      7 C                    -0.273443
      8 H                     0.101804
      9 H                     0.106855
     10 H                     0.106979
     11 C                    -0.371112
     12 H                     0.113748
     13 H                     0.151779
     14 H                     0.123226
     15 H                     0.195069
  ----------------------------------------
  Sum of atomic charges =     0.000000

                    Cartesian Multipole Moments
 -----------------------------------------------------------------
    Charge (ESU x 10^10)
                -0.0000
    Dipole Moment (Debye)
         X      -0.0761      Y      -0.0362      Z       0.8689
       Tot       0.8730
    Quadrupole Moments (Debye-Ang)
        XX     -53.6843     XY       1.3882     YY     -42.1765
        XZ      -0.1514     YZ       1.3875     ZZ     -48.8234

 Total job time:  158.01s(wall), 157.06s(cpu)
        *  Thank you very much for using Q-Chem.  Have a nice day.  *
