 Q-Chem 5.4, Q-Chem, Inc., Pleasanton, CA (2021)
 Q-Chem 5.4.0 for Intel X86 EM64T Linux

User input:
--------------------------------------------------------------
$molecule
0 1
C	-0.591384	-0.237127	0.012108
C	0.156516	0.194673	1.111508
C	1.355016	0.886573	0.788808
H	-0.162884	0.010273	2.148208
C	1.546116	0.996873	-0.600392
S	0.224816	0.234073	-1.474692
C	2.297116	1.430473	1.826708
H	1.928416	1.217573	2.848808
H	2.417516	2.530373	1.738308
H	3.309916	0.984673	1.738308
C	-0.591384	-1.677827	0.012108
H	0.343816	-1.678027	0.552208
H	-0.181784	-2.381627	-0.697292
H	-1.064984	-2.196727	0.832308
H	2.368216	1.471473	-1.149492
$end

$rem
JOBTYPE		SP
EXCHANGE	HF
CORRELATION	pRIMP2
BASIS		cc-pvtz
METHOD		rimp2
AUX_BASIS	rimp2-cc-pvtz
SOLVENT_METHOD	PCM
PURECART	11111
SYMMETRY	false
MEM_TOTAL	110000
SCF_CONVERGENCE = 6
THRESH=10
$end

$solvent
dielectric 4.90
$end
--------------------------------------------------------------

             Standard Nuclear Orientation (Angstroms)
    I     Atom           X                Y                Z
 ----------------------------------------------------------------
    1      C      -0.5913840000    -0.2371270000     0.0121080000
    2      C       0.1565160000     0.1946730000     1.1115080000
    3      C       1.3550160000     0.8865730000     0.7888080000
    4      H      -0.1628840000     0.0102730000     2.1482080000
    5      C       1.5461160000     0.9968730000    -0.6003920000
    6      S       0.2248160000     0.2340730000    -1.4746920000
    7      C       2.2971160000     1.4304730000     1.8267080000
    8      H       1.9284160000     1.2175730000     2.8488080000
    9      H       2.4175160000     2.5303730000     1.7383080000
   10      H       3.3099160000     0.9846730000     1.7383080000
   11      C      -0.5913840000    -1.6778270000     0.0121080000
   12      H       0.3438160000    -1.6780270000     0.5522080000
   13      H      -0.1817840000    -2.3816270000    -0.6972920000
   14      H      -1.0649840000    -2.1967270000     0.8323080000
   15      H       2.3682160000     1.4714730000    -1.1494920000
 ----------------------------------------------------------------

   11    -629.3368100036      7.66e-07  Convergence criterion met
 Total energy in the final basis set =     -629.3368100036
        RIMP2         total energy =      -630.5317204500 a.u.

                    Orbital Energies (a.u.)
 --------------------------------------------------------------

 Alpha MOs
 -- Occupied --
-91.9798 -11.2795 -11.2513 -11.2507 -11.2457 -11.2294 -11.2084  -8.9800
 -6.6608  -6.6600  -6.6598  -1.1783  -1.0583  -1.0018  -0.9336  -0.8818
 -0.7499  -0.7321  -0.6446  -0.5918  -0.5808  -0.5732  -0.5534  -0.5464
 -0.5153  -0.4811  -0.4564  -0.4419  -0.3330  -0.2866

          Ground-State Mulliken Net Atomic Charges

     Atom                 Charge (a.u.)
  ----------------------------------------
      1 C                    -0.106017
      2 C                    -0.115042
      3 C                    -0.029643
      4 H                     0.185438
      5 C                    -0.203626
      6 S                     0.032027
      7 C                    -0.266966
      8 H                     0.102595
      9 H                     0.107388
     10 H                     0.103524
     11 C                    -0.378077
     12 H                     0.116324
     13 H                     0.148060
     14 H                     0.105403
     15 H                     0.198610
  ----------------------------------------
  Sum of atomic charges =     0.000000

                    Cartesian Multipole Moments
 -----------------------------------------------------------------
    Charge (ESU x 10^10)
                -0.0000
    Dipole Moment (Debye)
         X       2.7784      Y      -0.0156      Z       1.7892
       Tot       3.3047
    Quadrupole Moments (Debye-Ang)
        XX     -48.9197     XY       3.5184     YY     -50.1679
        XZ      -0.5721     YZ      -0.4316     ZZ     -47.4257

 Total job time:  182.00s(wall), 179.60s(cpu)
        *  Thank you very much for using Q-Chem.  Have a nice day.  *
