 Q-Chem 5.4, Q-Chem, Inc., Pleasanton, CA (2021)
 Q-Chem 5.4.0 for Intel X86 EM64T Linux

User input:
--------------------------------------------------------------
$molecule
0 1
C	-0.583383	-0.237127	0.012353
C	0.164517	0.194673	1.111753
C	1.363017	0.886573	0.789053
H	-0.154883	0.010273	2.148453
C	1.554117	0.996873	-0.600147
S	0.232817	0.234073	-1.474447
C	2.305117	1.430473	1.826953
H	1.936417	1.217573	2.849053
H	2.425517	2.530373	1.738553
H	3.317917	0.984673	1.738553
C	-0.583383	-1.677827	0.012353
H	-1.410783	-1.678027	0.706453
H	-0.056883	-2.381627	0.639953
H	-1.192183	-2.196727	-0.713147
H	2.376217	1.471473	-1.149247
$end

$rem
JOBTYPE		SP
EXCHANGE	HF
CORRELATION	pRIMP2
BASIS		cc-pvtz
METHOD		rimp2
AUX_BASIS	rimp2-cc-pvtz
SOLVENT_METHOD	PCM
PURECART	11111
SYMMETRY	false
MEM_TOTAL	110000
SCF_CONVERGENCE = 6
THRESH=10
$end

$solvent
dielectric 4.90
$end
--------------------------------------------------------------

             Standard Nuclear Orientation (Angstroms)
    I     Atom           X                Y                Z
 ----------------------------------------------------------------
    1      C      -0.5833830000    -0.2371270000     0.0123530000
    2      C       0.1645170000     0.1946730000     1.1117530000
    3      C       1.3630170000     0.8865730000     0.7890530000
    4      H      -0.1548830000     0.0102730000     2.1484530000
    5      C       1.5541170000     0.9968730000    -0.6001470000
    6      S       0.2328170000     0.2340730000    -1.4744470000
    7      C       2.3051170000     1.4304730000     1.8269530000
    8      H       1.9364170000     1.2175730000     2.8490530000
    9      H       2.4255170000     2.5303730000     1.7385530000
   10      H       3.3179170000     0.9846730000     1.7385530000
   11      C      -0.5833830000    -1.6778270000     0.0123530000
   12      H      -1.4107830000    -1.6780270000     0.7064530000
   13      H      -0.0568830000    -2.3816270000     0.6399530000
   14      H      -1.1921830000    -2.1967270000    -0.7131470000
   15      H       2.3762170000     1.4714730000    -1.1492470000
 ----------------------------------------------------------------

   11    -629.3464241102      4.89e-07  Convergence criterion met
 Total energy in the final basis set =     -629.3464241102
        RIMP2         total energy =      -630.5379150917 a.u.

                    Orbital Energies (a.u.)
 --------------------------------------------------------------

 Alpha MOs
 -- Occupied --
-91.9707 -11.2828 -11.2550 -11.2497 -11.2412 -11.2293 -11.2068  -8.9719
 -6.6527  -6.6517  -6.6515  -1.1726  -1.0551  -0.9996  -0.9369  -0.8831
 -0.7490  -0.7321  -0.6447  -0.5864  -0.5821  -0.5660  -0.5536  -0.5427
 -0.5201  -0.4853  -0.4601  -0.4147  -0.3361  -0.2944

          Ground-State Mulliken Net Atomic Charges

     Atom                 Charge (a.u.)
  ----------------------------------------
      1 C                    -0.109168
      2 C                    -0.121143
      3 C                    -0.023671
      4 H                     0.185701
      5 C                    -0.176740
      6 S                     0.011978
      7 C                    -0.268132
      8 H                     0.101925
      9 H                     0.106833
     10 H                     0.104989
     11 C                    -0.389617
     12 H                     0.115377
     13 H                     0.143526
     14 H                     0.121803
     15 H                     0.196337
  ----------------------------------------
  Sum of atomic charges =     0.000000

                    Cartesian Multipole Moments
 -----------------------------------------------------------------
    Charge (ESU x 10^10)
                -0.0000
    Dipole Moment (Debye)
         X       2.0426      Y       0.2007      Z       2.1309
       Tot       2.9586
    Quadrupole Moments (Debye-Ang)
        XX     -47.6030     XY       5.0536     YY     -50.0949
        XZ      -0.1126     YZ      -0.5916     ZZ     -47.8225

 Total job time:  175.03s(wall), 173.92s(cpu)
        *  Thank you very much for using Q-Chem.  Have a nice day.  *
