 Q-Chem 5.4, Q-Chem, Inc., Pleasanton, CA (2021)
 Q-Chem 5.4.0 for Intel X86 EM64T Linux

User input:
--------------------------------------------------------------
$molecule
0 1
C	-0.282206	-0.512746	0.016960
C	0.082794	0.269954	1.116360
C	0.667694	1.524154	0.793660
H	-0.073106	-0.064346	2.153060
C	0.760994	1.724154	-0.595540
S	0.116094	0.341354	-1.469840
C	1.127394	2.509954	1.831560
H	0.947494	2.124254	2.853660
H	0.595094	3.480154	1.743160
H	2.212694	2.725854	1.743160
C	-0.282206	-1.953446	0.016960
H	-1.217406	-1.953146	-0.523140
H	0.127394	-2.657246	-0.692440
H	-0.755806	-2.472346	0.837160
H	1.162094	2.584454	-1.144640
$end

$rem
JOBTYPE		SP
EXCHANGE	HF
CORRELATION	pRIMP2
BASIS		cc-pvtz
METHOD		rimp2
AUX_BASIS	rimp2-cc-pvtz
SOLVENT_METHOD	PCM
PURECART	11111
SYMMETRY	false
MEM_TOTAL	110000
SCF_CONVERGENCE = 6
THRESH=10
$end

$solvent
dielectric 4.90
$end
--------------------------------------------------------------

             Standard Nuclear Orientation (Angstroms)
    I     Atom           X                Y                Z
 ----------------------------------------------------------------
    1      C      -0.2822060000    -0.5127460000     0.0169600000
    2      C       0.0827940000     0.2699540000     1.1163600000
    3      C       0.6676940000     1.5241540000     0.7936600000
    4      H      -0.0731060000    -0.0643460000     2.1530600000
    5      C       0.7609940000     1.7241540000    -0.5955400000
    6      S       0.1160940000     0.3413540000    -1.4698400000
    7      C       1.1273940000     2.5099540000     1.8315600000
    8      H       0.9474940000     2.1242540000     2.8536600000
    9      H       0.5950940000     3.4801540000     1.7431600000
   10      H       2.2126940000     2.7258540000     1.7431600000
   11      C      -0.2822060000    -1.9534460000     0.0169600000
   12      H      -1.2174060000    -1.9531460000    -0.5231400000
   13      H       0.1273940000    -2.6572460000    -0.6924400000
   14      H      -0.7558060000    -2.4723460000     0.8371600000
   15      H       1.1620940000     2.5844540000    -1.1446400000
 ----------------------------------------------------------------

   10    -629.4069898068      5.46e-07  Convergence criterion met
 Total energy in the final basis set =     -629.4069898068
        RIMP2         total energy =      -630.5868989551 a.u.

                    Orbital Energies (a.u.)
 --------------------------------------------------------------

 Alpha MOs
 -- Occupied --
-91.9778 -11.2753 -11.2568 -11.2472 -11.2293 -11.2268 -11.2160  -8.9778
 -6.6588  -6.6582  -6.6576  -1.1615  -1.0547  -0.9961  -0.9437  -0.8824
 -0.7461  -0.7198  -0.6455  -0.5885  -0.5743  -0.5718  -0.5503  -0.5460
 -0.5114  -0.4874  -0.4588  -0.4532  -0.3381  -0.2914

          Ground-State Mulliken Net Atomic Charges

     Atom                 Charge (a.u.)
  ----------------------------------------
      1 C                     0.003313
      2 C                    -0.249350
      3 C                     0.036242
      4 H                     0.181642
      5 C                    -0.253671
      6 S                    -0.006092
      7 C                    -0.271868
      8 H                     0.101438
      9 H                     0.106924
     10 H                     0.106485
     11 C                    -0.370272
     12 H                     0.127226
     13 H                     0.159758
     14 H                     0.133867
     15 H                     0.194357
  ----------------------------------------
  Sum of atomic charges =     0.000000

                    Cartesian Multipole Moments
 -----------------------------------------------------------------
    Charge (ESU x 10^10)
                -0.0000
    Dipole Moment (Debye)
         X       0.0422      Y      -0.2518      Z       1.1730
       Tot       1.2004
    Quadrupole Moments (Debye-Ang)
        XX     -52.4907     XY       4.6063     YY     -43.7381
        XZ      -0.1636     YZ       0.9393     ZZ     -48.4981

 Total job time:  157.78s(wall), 154.91s(cpu)
        *  Thank you very much for using Q-Chem.  Have a nice day.  *
