 Q-Chem 5.4, Q-Chem, Inc., Pleasanton, CA (2021)
 Q-Chem 5.4.0 for Intel X86 EM64T Linux

User input:
--------------------------------------------------------------
$molecule
0 1
C	-0.289618	-0.512746	0.011118
C	0.075382	0.269954	1.110518
C	0.660282	1.524154	0.787818
H	-0.080518	-0.064346	2.147218
C	0.753582	1.724154	-0.601382
S	0.108682	0.341354	-1.475682
C	1.119982	2.509954	1.825718
H	0.940082	2.124254	2.847818
H	0.587682	3.480154	1.737318
H	2.205282	2.725854	1.737318
C	-0.289618	-1.953446	0.011118
H	0.250282	-1.953146	0.946518
H	-0.999118	-2.657246	0.420618
H	0.530582	-2.472346	-0.462482
H	1.154682	2.584454	-1.150482
$end

$rem
JOBTYPE		SP
EXCHANGE	HF
CORRELATION	pRIMP2
BASIS		cc-pvtz
METHOD		rimp2
AUX_BASIS	rimp2-cc-pvtz
SOLVENT_METHOD	PCM
PURECART	11111
SYMMETRY	false
MEM_TOTAL	110000
SCF_CONVERGENCE = 6
THRESH=10
$end

$solvent
dielectric 4.90
$end
--------------------------------------------------------------

             Standard Nuclear Orientation (Angstroms)
    I     Atom           X                Y                Z
 ----------------------------------------------------------------
    1      C      -0.2896180000    -0.5127460000     0.0111180000
    2      C       0.0753820000     0.2699540000     1.1105180000
    3      C       0.6602820000     1.5241540000     0.7878180000
    4      H      -0.0805180000    -0.0643460000     2.1472180000
    5      C       0.7535820000     1.7241540000    -0.6013820000
    6      S       0.1086820000     0.3413540000    -1.4756820000
    7      C       1.1199820000     2.5099540000     1.8257180000
    8      H       0.9400820000     2.1242540000     2.8478180000
    9      H       0.5876820000     3.4801540000     1.7373180000
   10      H       2.2052820000     2.7258540000     1.7373180000
   11      C      -0.2896180000    -1.9534460000     0.0111180000
   12      H       0.2502820000    -1.9531460000     0.9465180000
   13      H      -0.9991180000    -2.6572460000     0.4206180000
   14      H       0.5305820000    -2.4723460000    -0.4624820000
   15      H       1.1546820000     2.5844540000    -1.1504820000
 ----------------------------------------------------------------

   10    -629.4098276372      5.08e-07  Convergence criterion met
 Total energy in the final basis set =     -629.4098276372
        RIMP2         total energy =      -630.5903481169 a.u.

                    Orbital Energies (a.u.)
 --------------------------------------------------------------

 Alpha MOs
 -- Occupied --
-91.9768 -11.2758 -11.2574 -11.2472 -11.2323 -11.2274 -11.2147  -8.9768
 -6.6577  -6.6571  -6.6566  -1.1630  -1.0545  -0.9990  -0.9384  -0.8834
 -0.7428  -0.7243  -0.6474  -0.5908  -0.5763  -0.5674  -0.5581  -0.5426
 -0.5108  -0.4801  -0.4683  -0.4444  -0.3358  -0.2985

          Ground-State Mulliken Net Atomic Charges

     Atom                 Charge (a.u.)
  ----------------------------------------
      1 C                     0.036009
      2 C                    -0.260614
      3 C                     0.032264
      4 H                     0.175885
      5 C                    -0.252482
      6 S                    -0.001504
      7 C                    -0.271540
      8 H                     0.101261
      9 H                     0.107216
     10 H                     0.106504
     11 C                    -0.382574
     12 H                     0.135548
     13 H                     0.143970
     14 H                     0.137430
     15 H                     0.192627
  ----------------------------------------
  Sum of atomic charges =     0.000000

                    Cartesian Multipole Moments
 -----------------------------------------------------------------
    Charge (ESU x 10^10)
                -0.0000
    Dipole Moment (Debye)
         X       0.9968      Y      -0.1622      Z       2.0588
       Tot       2.2932
    Quadrupole Moments (Debye-Ang)
        XX     -52.6495     XY       2.6824     YY     -44.1121
        XZ      -0.3228     YZ      -1.0040     ZZ     -48.6389

 Total job time:  158.73s(wall), 156.78s(cpu)
        *  Thank you very much for using Q-Chem.  Have a nice day.  *
