 Q-Chem 5.4, Q-Chem, Inc., Pleasanton, CA (2021)
 Q-Chem 5.4.0 for Intel X86 EM64T Linux

User input:
--------------------------------------------------------------
$molecule
0 1
C	-0.061344	-0.573729	0.010669
C	0.013956	0.286571	1.110069
C	0.134556	1.665271	0.787369
H	-0.018144	-0.080829	2.146769
C	0.153856	1.885071	-0.601831
S	0.020856	0.365071	-1.476131
C	0.229456	2.748871	1.825269
H	0.192356	2.324771	2.847369
H	-0.602544	3.478371	1.736869
H	1.175456	3.322871	1.736869
C	-0.061344	-2.014429	0.010669
H	0.307956	-2.014129	1.025569
H	-0.831144	-2.718229	0.290769
H	0.828656	-2.533329	-0.313231
H	0.236556	2.830671	-1.150931
$end

$rem
JOBTYPE		SP
EXCHANGE	HF
CORRELATION	pRIMP2
BASIS		cc-pvtz
METHOD		rimp2
AUX_BASIS	rimp2-cc-pvtz
SOLVENT_METHOD	PCM
PURECART	11111
SYMMETRY	false
MEM_TOTAL	110000
SCF_CONVERGENCE = 6
THRESH=10
$end

$solvent
dielectric 4.90
$end
--------------------------------------------------------------

             Standard Nuclear Orientation (Angstroms)
    I     Atom           X                Y                Z
 ----------------------------------------------------------------
    1      C      -0.0613440000    -0.5737290000     0.0106690000
    2      C       0.0139560000     0.2865710000     1.1100690000
    3      C       0.1345560000     1.6652710000     0.7873690000
    4      H      -0.0181440000    -0.0808290000     2.1467690000
    5      C       0.1538560000     1.8850710000    -0.6018310000
    6      S       0.0208560000     0.3650710000    -1.4761310000
    7      C       0.2294560000     2.7488710000     1.8252690000
    8      H       0.1923560000     2.3247710000     2.8473690000
    9      H      -0.6025440000     3.4783710000     1.7368690000
   10      H       1.1754560000     3.3228710000     1.7368690000
   11      C      -0.0613440000    -2.0144290000     0.0106690000
   12      H       0.3079560000    -2.0141290000     1.0255690000
   13      H      -0.8311440000    -2.7182290000     0.2907690000
   14      H       0.8286560000    -2.5333290000    -0.3132310000
   15      H       0.2365560000     2.8306710000    -1.1509310000
 ----------------------------------------------------------------

   10    -629.4242244839      5.05e-07  Convergence criterion met
 Total energy in the final basis set =     -629.4242244839
        RIMP2         total energy =      -630.6019952749 a.u.

                    Orbital Energies (a.u.)
 --------------------------------------------------------------

 Alpha MOs
 -- Occupied --
-91.9757 -11.2785 -11.2562 -11.2470 -11.2327 -11.2273 -11.2167  -8.9757
 -6.6566  -6.6561  -6.6556  -1.1610  -1.0541  -0.9995  -0.9398  -0.8843
 -0.7423  -0.7237  -0.6491  -0.5911  -0.5769  -0.5658  -0.5600  -0.5422
 -0.5098  -0.4858  -0.4679  -0.4404  -0.3375  -0.3021

          Ground-State Mulliken Net Atomic Charges

     Atom                 Charge (a.u.)
  ----------------------------------------
      1 C                     0.065973
      2 C                    -0.269214
      3 C                     0.030145
      4 H                     0.177276
      5 C                    -0.252909
      6 S                    -0.008268
      7 C                    -0.273958
      8 H                     0.101111
      9 H                     0.107242
     10 H                     0.107198
     11 C                    -0.378281
     12 H                     0.124595
     13 H                     0.143359
     14 H                     0.132658
     15 H                     0.193072
  ----------------------------------------
  Sum of atomic charges =     0.000000

                    Cartesian Multipole Moments
 -----------------------------------------------------------------
    Charge (ESU x 10^10)
                -0.0000
    Dipole Moment (Debye)
         X       0.3668      Y      -0.1398      Z       2.1013
       Tot       2.1376
    Quadrupole Moments (Debye-Ang)
        XX     -53.7419     XY       0.3162     YY     -42.2435
        XZ      -0.2183     YZ      -1.0599     ZZ     -48.8889

 Total job time:  161.48s(wall), 159.80s(cpu)
        *  Thank you very much for using Q-Chem.  Have a nice day.  *
