 Q-Chem 5.4, Q-Chem, Inc., Pleasanton, CA (2021)
 Q-Chem 5.4.0 for Intel X86 EM64T Linux

User input:
--------------------------------------------------------------
$molecule
0 1
C	-0.517715	-0.333972	0.019522
C	0.143885	0.221128	1.118922
C	1.203985	1.110628	0.796222
H	-0.138615	-0.015972	2.155622
C	1.373085	1.252428	-0.592978
S	0.204185	0.271728	-1.467278
C	2.037285	1.809828	1.834122
H	1.711185	1.536228	2.856222
H	1.964885	2.914028	1.745722
H	3.112085	1.546728	1.745722
C	-0.517715	-1.774672	0.019522
H	-1.057615	-1.774872	-0.915878
H	-1.227215	-2.478472	0.429022
H	0.302485	-2.293572	-0.454078
H	2.100185	1.862628	-1.142078
$end

$rem
JOBTYPE		SP
EXCHANGE	HF
CORRELATION	pRIMP2
BASIS		cc-pvtz
METHOD		rimp2
AUX_BASIS	rimp2-cc-pvtz
SOLVENT_METHOD	PCM
PURECART	11111
SYMMETRY	false
MEM_TOTAL	110000
SCF_CONVERGENCE = 6
THRESH=10
$end

$solvent
dielectric 4.90
$end
--------------------------------------------------------------

             Standard Nuclear Orientation (Angstroms)
    I     Atom           X                Y                Z
 ----------------------------------------------------------------
    1      C      -0.5177150000    -0.3339720000     0.0195220000
    2      C       0.1438850000     0.2211280000     1.1189220000
    3      C       1.2039850000     1.1106280000     0.7962220000
    4      H      -0.1386150000    -0.0159720000     2.1556220000
    5      C       1.3730850000     1.2524280000    -0.5929780000
    6      S       0.2041850000     0.2717280000    -1.4672780000
    7      C       2.0372850000     1.8098280000     1.8341220000
    8      H       1.7111850000     1.5362280000     2.8562220000
    9      H       1.9648850000     2.9140280000     1.7457220000
   10      H       3.1120850000     1.5467280000     1.7457220000
   11      C      -0.5177150000    -1.7746720000     0.0195220000
   12      H      -1.0576150000    -1.7748720000    -0.9158780000
   13      H      -1.2272150000    -2.4784720000     0.4290220000
   14      H       0.3024850000    -2.2935720000    -0.4540780000
   15      H       2.1001850000     1.8626280000    -1.1420780000
 ----------------------------------------------------------------

   10    -629.3697061502      9.44e-07  Convergence criterion met
 Total energy in the final basis set =     -629.3697061502
        RIMP2         total energy =      -630.5571473930 a.u.

                    Orbital Energies (a.u.)
 --------------------------------------------------------------

 Alpha MOs
 -- Occupied --
-91.9775 -11.2755 -11.2520 -11.2482 -11.2432 -11.2280 -11.2094  -8.9780
 -6.6589  -6.6582  -6.6577  -1.1689  -1.0555  -0.9950  -0.9443  -0.8800
 -0.7520  -0.7250  -0.6432  -0.5924  -0.5774  -0.5679  -0.5518  -0.5462
 -0.5160  -0.4726  -0.4560  -0.4410  -0.3354  -0.3008

          Ground-State Mulliken Net Atomic Charges

     Atom                 Charge (a.u.)
  ----------------------------------------
      1 C                    -0.073198
      2 C                    -0.153649
      3 C                     0.000467
      4 H                     0.181151
      5 C                    -0.205573
      6 S                     0.007963
      7 C                    -0.269457
      8 H                     0.101972
      9 H                     0.106705
     10 H                     0.104637
     11 C                    -0.368762
     12 H                     0.105877
     13 H                     0.138107
     14 H                     0.126255
     15 H                     0.197504
  ----------------------------------------
  Sum of atomic charges =     0.000000

                    Cartesian Multipole Moments
 -----------------------------------------------------------------
    Charge (ESU x 10^10)
                -0.0000
    Dipole Moment (Debye)
         X       1.6216      Y       0.2968      Z       1.1905
       Tot       2.0334
    Quadrupole Moments (Debye-Ang)
        XX     -48.9292     XY       5.3857     YY     -48.2184
        XZ      -0.2919     YZ       0.6944     ZZ     -48.1927

 Total job time:  158.31s(wall), 157.53s(cpu)
        *  Thank you very much for using Q-Chem.  Have a nice day.  *
