 Q-Chem 5.4, Q-Chem, Inc., Pleasanton, CA (2021)
 Q-Chem 5.4.0 for Intel X86 EM64T Linux

User input:
--------------------------------------------------------------
$molecule
0 1
C	-0.175851	-0.553189	0.010154
C	0.047649	0.281011	1.109554
C	0.405849	1.617711	0.786854
H	-0.047751	-0.075289	2.146254
C	0.463049	1.830811	-0.602346
S	0.068049	0.357111	-1.476646
C	0.687449	2.668411	1.824754
H	0.577249	2.257311	2.846854
H	-0.005151	3.531411	1.736354
H	1.718749	3.069411	1.736354
C	-0.175851	-1.993889	0.010154
H	0.011549	-1.994089	1.073754
H	0.630949	-2.697689	-0.132046
H	-1.108551	-2.512789	0.174654
H	0.708749	2.747711	-1.151446
$end

$rem
JOBTYPE		SP
EXCHANGE	HF
CORRELATION	pRIMP2
BASIS		cc-pvtz
METHOD		rimp2
AUX_BASIS	rimp2-cc-pvtz
SOLVENT_METHOD	PCM
PURECART	11111
SYMMETRY	false
MEM_TOTAL	110000
SCF_CONVERGENCE = 6
THRESH=10
$end

$solvent
dielectric 4.90
$end
--------------------------------------------------------------

             Standard Nuclear Orientation (Angstroms)
    I     Atom           X                Y                Z
 ----------------------------------------------------------------
    1      C      -0.1758510000    -0.5531890000     0.0101540000
    2      C       0.0476490000     0.2810110000     1.1095540000
    3      C       0.4058490000     1.6177110000     0.7868540000
    4      H      -0.0477510000    -0.0752890000     2.1462540000
    5      C       0.4630490000     1.8308110000    -0.6023460000
    6      S       0.0680490000     0.3571110000    -1.4766460000
    7      C       0.6874490000     2.6684110000     1.8247540000
    8      H       0.5772490000     2.2573110000     2.8468540000
    9      H      -0.0051510000     3.5314110000     1.7363540000
   10      H       1.7187490000     3.0694110000     1.7363540000
   11      C      -0.1758510000    -1.9938890000     0.0101540000
   12      H       0.0115490000    -1.9940890000     1.0737540000
   13      H       0.6309490000    -2.6976890000    -0.1320460000
   14      H      -1.1085510000    -2.5127890000     0.1746540000
   15      H       0.7087490000     2.7477110000    -1.1514460000
 ----------------------------------------------------------------

   10    -629.4191965763      4.94e-07  Convergence criterion met
 Total energy in the final basis set =     -629.4191965763
        RIMP2         total energy =      -630.5982606109 a.u.

                    Orbital Energies (a.u.)
 --------------------------------------------------------------

 Alpha MOs
 -- Occupied --
-91.9750 -11.2759 -11.2583 -11.2471 -11.2349 -11.2275 -11.2153  -8.9752
 -6.6561  -6.6555  -6.6550  -1.1617  -1.0539  -0.9997  -0.9391  -0.8844
 -0.7424  -0.7247  -0.6483  -0.5908  -0.5781  -0.5683  -0.5582  -0.5419
 -0.5115  -0.4816  -0.4681  -0.4376  -0.3373  -0.3036

          Ground-State Mulliken Net Atomic Charges

     Atom                 Charge (a.u.)
  ----------------------------------------
      1 C                     0.051437
      2 C                    -0.268895
      3 C                     0.033659
      4 H                     0.176496
      5 C                    -0.249981
      6 S                    -0.005879
      7 C                    -0.272801
      8 H                     0.101135
      9 H                     0.107084
     10 H                     0.107161
     11 C                    -0.368676
     12 H                     0.122922
     13 H                     0.148015
     14 H                     0.125361
     15 H                     0.192963
  ----------------------------------------
  Sum of atomic charges =     0.000000

                    Cartesian Multipole Moments
 -----------------------------------------------------------------
    Charge (ESU x 10^10)
                -0.0000
    Dipole Moment (Debye)
         X       0.5020      Y      -0.0390      Z       2.1518
       Tot       2.2099
    Quadrupole Moments (Debye-Ang)
        XX     -53.2058     XY       1.8133     YY     -42.8862
        XZ      -0.1572     YZ      -1.0587     ZZ     -48.8975

 Total job time:  156.93s(wall), 155.20s(cpu)
        *  Thank you very much for using Q-Chem.  Have a nice day.  *
