 Q-Chem 5.4, Q-Chem, Inc., Pleasanton, CA (2021)
 Q-Chem 5.4.0 for Intel X86 EM64T Linux

User input:
--------------------------------------------------------------
$molecule
0 1
C	-0.285288	-0.512746	0.019710
C	0.079712	0.269954	1.119110
C	0.664612	1.524154	0.796410
H	-0.076188	-0.064346	2.155810
C	0.757912	1.724154	-0.592790
S	0.113012	0.341354	-1.467090
C	1.124312	2.509954	1.834310
H	0.944412	2.124254	2.856410
H	0.592012	3.480154	1.745910
H	2.209612	2.725854	1.745910
C	-0.285288	-1.953446	0.019710
H	-0.472688	-1.953146	-1.043890
H	0.521512	-2.657246	-0.122490
H	-1.217988	-2.472346	0.184210
H	1.159012	2.584454	-1.141890
$end

$rem
JOBTYPE		SP
EXCHANGE	HF
CORRELATION	pRIMP2
BASIS		cc-pvtz
METHOD		rimp2
AUX_BASIS	rimp2-cc-pvtz
SOLVENT_METHOD	PCM
PURECART	11111
SYMMETRY	false
MEM_TOTAL	110000
SCF_CONVERGENCE = 6
THRESH=10
$end

$solvent
dielectric 4.90
$end
--------------------------------------------------------------

             Standard Nuclear Orientation (Angstroms)
    I     Atom           X                Y                Z
 ----------------------------------------------------------------
    1      C      -0.2852880000    -0.5127460000     0.0197100000
    2      C       0.0797120000     0.2699540000     1.1191100000
    3      C       0.6646120000     1.5241540000     0.7964100000
    4      H      -0.0761880000    -0.0643460000     2.1558100000
    5      C       0.7579120000     1.7241540000    -0.5927900000
    6      S       0.1130120000     0.3413540000    -1.4670900000
    7      C       1.1243120000     2.5099540000     1.8343100000
    8      H       0.9444120000     2.1242540000     2.8564100000
    9      H       0.5920120000     3.4801540000     1.7459100000
   10      H       2.2096120000     2.7258540000     1.7459100000
   11      C      -0.2852880000    -1.9534460000     0.0197100000
   12      H      -0.4726880000    -1.9531460000    -1.0438900000
   13      H       0.5215120000    -2.6572460000    -0.1224900000
   14      H      -1.2179880000    -2.4723460000     0.1842100000
   15      H       1.1590120000     2.5844540000    -1.1418900000
 ----------------------------------------------------------------

   10    -629.4069323775      5.30e-07  Convergence criterion met
 Total energy in the final basis set =     -629.4069323775
        RIMP2         total energy =      -630.5879079487 a.u.

                    Orbital Energies (a.u.)
 --------------------------------------------------------------

 Alpha MOs
 -- Occupied --
-91.9797 -11.2683 -11.2625 -11.2473 -11.2331 -11.2271 -11.2135  -8.9797
 -6.6606  -6.6600  -6.6594  -1.1626  -1.0547  -0.9950  -0.9460  -0.8813
 -0.7489  -0.7201  -0.6468  -0.5894  -0.5764  -0.5684  -0.5520  -0.5472
 -0.5124  -0.4772  -0.4646  -0.4429  -0.3374  -0.3043

          Ground-State Mulliken Net Atomic Charges

     Atom                 Charge (a.u.)
  ----------------------------------------
      1 C                     0.012690
      2 C                    -0.249937
      3 C                     0.039465
      4 H                     0.179580
      5 C                    -0.247973
      6 S                    -0.000326
      7 C                    -0.271697
      8 H                     0.102044
      9 H                     0.106693
     10 H                     0.106208
     11 C                    -0.354715
     12 H                     0.110612
     13 H                     0.145234
     14 H                     0.126649
     15 H                     0.195472
  ----------------------------------------
  Sum of atomic charges =     0.000000

                    Cartesian Multipole Moments
 -----------------------------------------------------------------
    Charge (ESU x 10^10)
                -0.0000
    Dipole Moment (Debye)
         X       0.6399      Y       0.2008      Z       0.9380
       Tot       1.1531
    Quadrupole Moments (Debye-Ang)
        XX     -52.2073     XY       3.5582     YY     -44.0607
        XZ       0.0510     YZ       1.3142     ZZ     -48.6896

 Total job time:  157.37s(wall), 155.44s(cpu)
        *  Thank you very much for using Q-Chem.  Have a nice day.  *
