 Q-Chem 5.4, Q-Chem, Inc., Pleasanton, CA (2021)
 Q-Chem 5.4.0 for Intel X86 EM64T Linux

User input:
--------------------------------------------------------------
$molecule
0 1
C	-0.054783	-0.573729	0.012833
C	0.020517	0.286571	1.112233
C	0.141117	1.665271	0.789533
H	-0.011583	-0.080829	2.148933
C	0.160417	1.885071	-0.599667
S	0.027417	0.365071	-1.473967
C	0.236017	2.748871	1.827433
H	0.198917	2.324771	2.849533
H	-0.595983	3.478371	1.739033
H	1.182017	3.322871	1.739033
C	-0.054783	-2.014429	0.012833
H	-1.069683	-2.014129	0.382133
H	-0.334883	-2.718229	-0.756967
H	0.269117	-2.533329	0.902833
H	0.243117	2.830671	-1.148767
$end

$rem
JOBTYPE		SP
EXCHANGE	HF
CORRELATION	pRIMP2
BASIS		cc-pvtz
METHOD		rimp2
AUX_BASIS	rimp2-cc-pvtz
SOLVENT_METHOD	PCM
PURECART	11111
SYMMETRY	false
MEM_TOTAL	110000
SCF_CONVERGENCE = 6
THRESH=10
$end

$solvent
dielectric 4.90
$end
--------------------------------------------------------------

             Standard Nuclear Orientation (Angstroms)
    I     Atom           X                Y                Z
 ----------------------------------------------------------------
    1      C      -0.0547830000    -0.5737290000     0.0128330000
    2      C       0.0205170000     0.2865710000     1.1122330000
    3      C       0.1411170000     1.6652710000     0.7895330000
    4      H      -0.0115830000    -0.0808290000     2.1489330000
    5      C       0.1604170000     1.8850710000    -0.5996670000
    6      S       0.0274170000     0.3650710000    -1.4739670000
    7      C       0.2360170000     2.7488710000     1.8274330000
    8      H       0.1989170000     2.3247710000     2.8495330000
    9      H      -0.5959830000     3.4783710000     1.7390330000
   10      H       1.1820170000     3.3228710000     1.7390330000
   11      C      -0.0547830000    -2.0144290000     0.0128330000
   12      H      -1.0696830000    -2.0141290000     0.3821330000
   13      H      -0.3348830000    -2.7182290000    -0.7569670000
   14      H       0.2691170000    -2.5333290000     0.9028330000
   15      H       0.2431170000     2.8306710000    -1.1487670000
 ----------------------------------------------------------------

   10    -629.4232990158      6.70e-07  Convergence criterion met
 Total energy in the final basis set =     -629.4232990158
        RIMP2         total energy =      -630.5994618888 a.u.

                    Orbital Energies (a.u.)
 --------------------------------------------------------------

 Alpha MOs
 -- Occupied --
-91.9775 -11.2855 -11.2487 -11.2471 -11.2266 -11.2244 -11.2212  -8.9773
 -6.6582  -6.6577  -6.6571  -1.1600  -1.0558  -0.9981  -0.9409  -0.8833
 -0.7428  -0.7193  -0.6478  -0.5899  -0.5732  -0.5712  -0.5556  -0.5444
 -0.5085  -0.4924  -0.4644  -0.4540  -0.3377  -0.2893

          Ground-State Mulliken Net Atomic Charges

     Atom                 Charge (a.u.)
  ----------------------------------------
      1 C                     0.075594
      2 C                    -0.311449
      3 C                     0.049488
      4 H                     0.175172
      5 C                    -0.278391
      6 S                    -0.000327
      7 C                    -0.275297
      8 H                     0.101173
      9 H                     0.107349
     10 H                     0.107406
     11 C                    -0.388619
     12 H                     0.141954
     13 H                     0.163116
     14 H                     0.141177
     15 H                     0.191655
  ----------------------------------------
  Sum of atomic charges =     0.000000

                    Cartesian Multipole Moments
 -----------------------------------------------------------------
    Charge (ESU x 10^10)
                -0.0000
    Dipole Moment (Debye)
         X      -0.6043      Y      -0.7293      Z       1.6639
       Tot       1.9146
    Quadrupole Moments (Debye-Ang)
        XX     -54.1686     XY       2.3106     YY     -41.8706
        XZ       0.1995     YZ      -0.0102     ZZ     -48.6215

 Total job time:  161.14s(wall), 159.51s(cpu)
        *  Thank you very much for using Q-Chem.  Have a nice day.  *
