 Q-Chem 5.4, Q-Chem, Inc., Pleasanton, CA (2021)
 Q-Chem 5.4.0 for Intel X86 EM64T Linux

User input:
--------------------------------------------------------------
$molecule
0 1
C	-0.055059	-0.573729	0.017710
C	0.020241	0.286571	1.117110
C	0.140841	1.665271	0.794410
H	-0.011859	-0.080829	2.153810
C	0.160141	1.885071	-0.594790
S	0.027141	0.365071	-1.469090
C	0.235741	2.748871	1.832310
H	0.198641	2.324771	2.854410
H	-0.596259	3.478371	1.743910
H	1.181741	3.322871	1.743910
C	-0.055059	-2.014429	0.017710
H	-0.882359	-2.014129	-0.676590
H	0.471541	-2.718229	-0.609790
H	-0.663859	-2.533329	0.743310
H	0.242841	2.830671	-1.143890
$end

$rem
JOBTYPE		SP
EXCHANGE	HF
CORRELATION	pRIMP2
BASIS		cc-pvtz
METHOD		rimp2
AUX_BASIS	rimp2-cc-pvtz
SOLVENT_METHOD	PCM
PURECART	11111
SYMMETRY	false
MEM_TOTAL	110000
SCF_CONVERGENCE = 6
THRESH=10
$end

$solvent
dielectric 4.90
$end
--------------------------------------------------------------

             Standard Nuclear Orientation (Angstroms)
    I     Atom           X                Y                Z
 ----------------------------------------------------------------
    1      C      -0.0550590000    -0.5737290000     0.0177100000
    2      C       0.0202410000     0.2865710000     1.1171100000
    3      C       0.1408410000     1.6652710000     0.7944100000
    4      H      -0.0118590000    -0.0808290000     2.1538100000
    5      C       0.1601410000     1.8850710000    -0.5947900000
    6      S       0.0271410000     0.3650710000    -1.4690900000
    7      C       0.2357410000     2.7488710000     1.8323100000
    8      H       0.1986410000     2.3247710000     2.8544100000
    9      H      -0.5962590000     3.4783710000     1.7439100000
   10      H       1.1817410000     3.3228710000     1.7439100000
   11      C      -0.0550590000    -2.0144290000     0.0177100000
   12      H      -0.8823590000    -2.0141290000    -0.6765900000
   13      H       0.4715410000    -2.7182290000    -0.6097900000
   14      H      -0.6638590000    -2.5333290000     0.7433100000
   15      H       0.2428410000     2.8306710000    -1.1438900000
 ----------------------------------------------------------------

   10    -629.4224817336      6.14e-07  Convergence criterion met
 Total energy in the final basis set =     -629.4224817336
        RIMP2         total energy =      -630.5988409952 a.u.

                    Orbital Energies (a.u.)
 --------------------------------------------------------------

 Alpha MOs
 -- Occupied --
-91.9783 -11.2807 -11.2535 -11.2469 -11.2268 -11.2266 -11.2190  -8.9783
 -6.6592  -6.6587  -6.6581  -1.1605  -1.0555  -0.9962  -0.9446  -0.8822
 -0.7460  -0.7185  -0.6475  -0.5907  -0.5755  -0.5686  -0.5506  -0.5474
 -0.5087  -0.4891  -0.4648  -0.4525  -0.3389  -0.2945

          Ground-State Mulliken Net Atomic Charges

     Atom                 Charge (a.u.)
  ----------------------------------------
      1 C                     0.044874
      2 C                    -0.269397
      3 C                     0.034486
      4 H                     0.181506
      5 C                    -0.260566
      6 S                    -0.008314
      7 C                    -0.273846
      8 H                     0.101390
      9 H                     0.107069
     10 H                     0.107237
     11 C                    -0.369999
     12 H                     0.124589
     13 H                     0.149770
     14 H                     0.137219
     15 H                     0.193984
  ----------------------------------------
  Sum of atomic charges =     0.000000

                    Cartesian Multipole Moments
 -----------------------------------------------------------------
    Charge (ESU x 10^10)
                -0.0000
    Dipole Moment (Debye)
         X      -0.4223      Y      -0.3606      Z       1.0290
       Tot       1.1693
    Quadrupole Moments (Debye-Ang)
        XX     -54.0126     XY       1.8653     YY     -41.9491
        XZ      -0.2849     YZ       1.2655     ZZ     -48.6920

 Total job time:  157.97s(wall), 157.29s(cpu)
        *  Thank you very much for using Q-Chem.  Have a nice day.  *
