 Q-Chem 5.4, Q-Chem, Inc., Pleasanton, CA (2021)
 Q-Chem 5.4.0 for Intel X86 EM64T Linux

User input:
--------------------------------------------------------------
$molecule
0 1
C	-0.171488	-0.553191	0.017710
C	0.052012	0.281009	1.117110
C	0.410212	1.617709	0.794410
H	-0.043388	-0.075291	2.153810
C	0.467412	1.830809	-0.594790
S	0.072412	0.357109	-1.469090
C	0.691812	2.668409	1.832310
H	0.581612	2.257309	2.854410
H	-0.000788	3.531409	1.743910
H	1.723112	3.069409	1.743910
C	-0.171488	-1.993891	0.017710
H	-0.998788	-1.993591	-0.676590
H	0.355112	-2.697691	-0.609790
H	-0.780288	-2.512791	0.743310
H	0.713112	2.747709	-1.143890
$end

$rem
JOBTYPE		SP
EXCHANGE	HF
CORRELATION	pRIMP2
BASIS		cc-pvtz
METHOD		rimp2
AUX_BASIS	rimp2-cc-pvtz
SOLVENT_METHOD	PCM
PURECART	11111
SYMMETRY	false
MEM_TOTAL	110000
SCF_CONVERGENCE = 6
THRESH=10
$end

$solvent
dielectric 4.90
$end
--------------------------------------------------------------

             Standard Nuclear Orientation (Angstroms)
    I     Atom           X                Y                Z
 ----------------------------------------------------------------
    1      C      -0.1714880000    -0.5531910000     0.0177100000
    2      C       0.0520120000     0.2810090000     1.1171100000
    3      C       0.4102120000     1.6177090000     0.7944100000
    4      H      -0.0433880000    -0.0752910000     2.1538100000
    5      C       0.4674120000     1.8308090000    -0.5947900000
    6      S       0.0724120000     0.3571090000    -1.4690900000
    7      C       0.6918120000     2.6684090000     1.8323100000
    8      H       0.5816120000     2.2573090000     2.8544100000
    9      H      -0.0007880000     3.5314090000     1.7439100000
   10      H       1.7231120000     3.0694090000     1.7439100000
   11      C      -0.1714880000    -1.9938910000     0.0177100000
   12      H      -0.9987880000    -1.9935910000    -0.6765900000
   13      H       0.3551120000    -2.6976910000    -0.6097900000
   14      H      -0.7802880000    -2.5127910000     0.7433100000
   15      H       0.7131120000     2.7477090000    -1.1438900000
 ----------------------------------------------------------------

   10    -629.4170194929      5.74e-07  Convergence criterion met
 Total energy in the final basis set =     -629.4170194929
        RIMP2         total energy =      -630.5947855428 a.u.

                    Orbital Energies (a.u.)
 --------------------------------------------------------------

 Alpha MOs
 -- Occupied --
-91.9785 -11.2780 -11.2553 -11.2471 -11.2279 -11.2267 -11.2176  -8.9785
 -6.6594  -6.6589  -6.6583  -1.1608  -1.0551  -0.9961  -0.9446  -0.8823
 -0.7462  -0.7190  -0.6468  -0.5900  -0.5751  -0.5698  -0.5505  -0.5469
 -0.5101  -0.4869  -0.4632  -0.4523  -0.3386  -0.2944

          Ground-State Mulliken Net Atomic Charges

     Atom                 Charge (a.u.)
  ----------------------------------------
      1 C                     0.021523
      2 C                    -0.253839
      3 C                     0.031344
      4 H                     0.181295
      5 C                    -0.254376
      6 S                    -0.008073
      7 C                    -0.273355
      8 H                     0.101438
      9 H                     0.106971
     10 H                     0.106958
     11 C                    -0.365957
     12 H                     0.123432
     13 H                     0.152140
     14 H                     0.136317
     15 H                     0.194182
  ----------------------------------------
  Sum of atomic charges =     0.000000

                    Cartesian Multipole Moments
 -----------------------------------------------------------------
    Charge (ESU x 10^10)
                -0.0000
    Dipole Moment (Debye)
         X      -0.1613      Y      -0.2611      Z       1.0559
       Tot       1.0996
    Quadrupole Moments (Debye-Ang)
        XX     -53.4128     XY       3.2976     YY     -42.5944
        XZ      -0.2235     YZ       1.1785     ZZ     -48.6418

 Total job time:  156.57s(wall), 154.50s(cpu)
        *  Thank you very much for using Q-Chem.  Have a nice day.  *
