 Q-Chem 5.4, Q-Chem, Inc., Pleasanton, CA (2021)
 Q-Chem 5.4.0 for Intel X86 EM64T Linux

User input:
--------------------------------------------------------------
$molecule
0 1
C	-0.058571	-0.573729	0.019883
C	0.016729	0.286571	1.119283
C	0.137329	1.665271	0.796583
H	-0.015371	-0.080829	2.155983
C	0.156629	1.885071	-0.592617
S	0.023629	0.365071	-1.466917
C	0.232229	2.748871	1.834483
H	0.195129	2.324771	2.856583
H	-0.599771	3.478371	1.746083
H	1.178229	3.322871	1.746083
C	-0.058571	-2.014429	0.019883
H	-0.058471	-2.014129	-1.060117
H	0.760629	-2.718229	0.019983
H	-1.005671	-2.533329	0.019883
H	0.239329	2.830671	-1.141717
$end

$rem
JOBTYPE		SP
EXCHANGE	HF
CORRELATION	pRIMP2
BASIS		cc-pvtz
METHOD		rimp2
AUX_BASIS	rimp2-cc-pvtz
SOLVENT_METHOD	PCM
PURECART	11111
SYMMETRY	false
MEM_TOTAL	110000
SCF_CONVERGENCE = 6
THRESH=10
$end

$solvent
dielectric 4.90
$end
--------------------------------------------------------------

             Standard Nuclear Orientation (Angstroms)
    I     Atom           X                Y                Z
 ----------------------------------------------------------------
    1      C      -0.0585710000    -0.5737290000     0.0198830000
    2      C       0.0167290000     0.2865710000     1.1192830000
    3      C       0.1373290000     1.6652710000     0.7965830000
    4      H      -0.0153710000    -0.0808290000     2.1559830000
    5      C       0.1566290000     1.8850710000    -0.5926170000
    6      S       0.0236290000     0.3650710000    -1.4669170000
    7      C       0.2322290000     2.7488710000     1.8344830000
    8      H       0.1951290000     2.3247710000     2.8565830000
    9      H      -0.5997710000     3.4783710000     1.7460830000
   10      H       1.1782290000     3.3228710000     1.7460830000
   11      C      -0.0585710000    -2.0144290000     0.0198830000
   12      H      -0.0584710000    -2.0141290000    -1.0601170000
   13      H       0.7606290000    -2.7182290000     0.0199830000
   14      H      -1.0056710000    -2.5333290000     0.0198830000
   15      H       0.2393290000     2.8306710000    -1.1417170000
 ----------------------------------------------------------------

   10    -629.4198782906      5.43e-07  Convergence criterion met
 Total energy in the final basis set =     -629.4198782906
        RIMP2         total energy =      -630.5978906531 a.u.

                    Orbital Energies (a.u.)
 --------------------------------------------------------------

 Alpha MOs
 -- Occupied --
-91.9807 -11.2745 -11.2580 -11.2471 -11.2293 -11.2268 -11.2158  -8.9805
 -6.6614  -6.6609  -6.6603  -1.1609  -1.0551  -0.9953  -0.9464  -0.8817
 -0.7480  -0.7186  -0.6482  -0.5912  -0.5755  -0.5661  -0.5535  -0.5474
 -0.5092  -0.4853  -0.4650  -0.4437  -0.3383  -0.3042

          Ground-State Mulliken Net Atomic Charges

     Atom                 Charge (a.u.)
  ----------------------------------------
      1 C                     0.057219
      2 C                    -0.263191
      3 C                     0.040169
      4 H                     0.180124
      5 C                    -0.259947
      6 S                    -0.002821
      7 C                    -0.273345
      8 H                     0.101911
      9 H                     0.106821
     10 H                     0.106848
     11 C                    -0.369310
     12 H                     0.112494
     13 H                     0.141247
     14 H                     0.126296
     15 H                     0.195484
  ----------------------------------------
  Sum of atomic charges =     0.000000

                    Cartesian Multipole Moments
 -----------------------------------------------------------------
    Charge (ESU x 10^10)
                -0.0000
    Dipole Moment (Debye)
         X       0.1190      Y       0.0520      Z       0.8498
       Tot       0.8597
    Quadrupole Moments (Debye-Ang)
        XX     -53.6238     XY       0.6693     YY     -42.2701
        XZ       0.0318     YZ       1.4873     ZZ     -48.8353

 Total job time:  158.15s(wall), 157.11s(cpu)
        *  Thank you very much for using Q-Chem.  Have a nice day.  *
