 Q-Chem 5.4, Q-Chem, Inc., Pleasanton, CA (2021)
 Q-Chem 5.4.0 for Intel X86 EM64T Linux

User input:
--------------------------------------------------------------
$molecule
0 1
C	-0.515729	-0.333972	0.017956
C	0.145871	0.221128	1.117356
C	1.205971	1.110628	0.794656
H	-0.136629	-0.015972	2.154056
C	1.375071	1.252428	-0.594544
S	0.206171	0.271728	-1.468844
C	2.039271	1.809828	1.832556
H	1.713171	1.536228	2.854656
H	1.966871	2.914028	1.744156
H	3.114071	1.546728	1.744156
C	-0.515729	-1.774672	0.017956
H	-1.450929	-1.774872	-0.522144
H	-0.925329	-2.478472	0.727356
H	-0.042129	-2.293572	-0.802244
H	2.102171	1.862628	-1.143644
$end

$rem
JOBTYPE		SP
EXCHANGE	HF
CORRELATION	pRIMP2
BASIS		cc-pvtz
METHOD		rimp2
AUX_BASIS	rimp2-cc-pvtz
SOLVENT_METHOD	PCM
PURECART	11111
SYMMETRY	false
MEM_TOTAL	110000
SCF_CONVERGENCE = 6
THRESH=10
$end

$solvent
dielectric 4.90
$end
--------------------------------------------------------------

             Standard Nuclear Orientation (Angstroms)
    I     Atom           X                Y                Z
 ----------------------------------------------------------------
    1      C      -0.5157290000    -0.3339720000     0.0179560000
    2      C       0.1458710000     0.2211280000     1.1173560000
    3      C       1.2059710000     1.1106280000     0.7946560000
    4      H      -0.1366290000    -0.0159720000     2.1540560000
    5      C       1.3750710000     1.2524280000    -0.5945440000
    6      S       0.2061710000     0.2717280000    -1.4688440000
    7      C       2.0392710000     1.8098280000     1.8325560000
    8      H       1.7131710000     1.5362280000     2.8546560000
    9      H       1.9668710000     2.9140280000     1.7441560000
   10      H       3.1140710000     1.5467280000     1.7441560000
   11      C      -0.5157290000    -1.7746720000     0.0179560000
   12      H      -1.4509290000    -1.7748720000    -0.5221440000
   13      H      -0.9253290000    -2.4784720000     0.7273560000
   14      H      -0.0421290000    -2.2935720000    -0.8022440000
   15      H       2.1021710000     1.8626280000    -1.1436440000
 ----------------------------------------------------------------

   11    -629.3627388436      4.25e-07  Convergence criterion met
 Total energy in the final basis set =     -629.3627388436
        RIMP2         total energy =      -630.5511985844 a.u.

                    Orbital Energies (a.u.)
 --------------------------------------------------------------

 Alpha MOs
 -- Occupied --
-91.9761 -11.2721 -11.2543 -11.2478 -11.2413 -11.2276 -11.2076  -8.9766
 -6.6576  -6.6568  -6.6564  -1.1675  -1.0544  -0.9953  -0.9428  -0.8809
 -0.7498  -0.7248  -0.6426  -0.5890  -0.5752  -0.5687  -0.5522  -0.5443
 -0.5154  -0.4837  -0.4570  -0.4374  -0.3362  -0.2891

          Ground-State Mulliken Net Atomic Charges

     Atom                 Charge (a.u.)
  ----------------------------------------
      1 C                    -0.073150
      2 C                    -0.165105
      3 C                     0.008731
      4 H                     0.182650
      5 C                    -0.211194
      6 S                     0.004938
      7 C                    -0.269923
      8 H                     0.101535
      9 H                     0.106739
     10 H                     0.104648
     11 C                    -0.387945
     12 H                     0.120451
     13 H                     0.145690
     14 H                     0.135146
     15 H                     0.196791
  ----------------------------------------
  Sum of atomic charges =     0.000000

                    Cartesian Multipole Moments
 -----------------------------------------------------------------
    Charge (ESU x 10^10)
                -0.0000
    Dipole Moment (Debye)
         X       1.2768      Y       0.1026      Z       1.3583
       Tot       1.8670
    Quadrupole Moments (Debye-Ang)
        XX     -49.0741     XY       5.6361     YY     -48.2275
        XZ      -0.4184     YZ       0.3595     ZZ     -47.9707

 Total job time:  169.91s(wall), 169.08s(cpu)
        *  Thank you very much for using Q-Chem.  Have a nice day.  *
