 Q-Chem 5.4, Q-Chem, Inc., Pleasanton, CA (2021)
 Q-Chem 5.4.0 for Intel X86 EM64T Linux

User input:
--------------------------------------------------------------
$molecule
0 1
C	0.002905	-0.576312	0.018946
C	0.002905	0.287288	1.118346
C	0.003005	1.671188	0.795646
H	0.002905	-0.081512	2.155046
C	0.003005	1.891888	-0.593554
S	0.002905	0.366088	-1.467854
C	0.003005	2.758988	1.833546
H	0.003005	2.333288	2.855646
H	-0.889395	3.413288	1.745146
H	0.895405	3.413188	1.745146
C	0.002905	-2.017012	0.018946
H	-0.536995	-2.016712	-0.916454
H	0.712405	-2.720812	-0.390554
H	-0.817295	-2.535912	0.492546
H	0.003005	2.841088	-1.142654
$end

$rem
JOBTYPE		SP
EXCHANGE	HF
CORRELATION	pRIMP2
BASIS		cc-pvtz
METHOD		rimp2
AUX_BASIS	rimp2-cc-pvtz
SOLVENT_METHOD	PCM
PURECART	11111
SYMMETRY	false
MEM_TOTAL	110000
SCF_CONVERGENCE = 6
THRESH=10
$end

$solvent
dielectric 4.90
$end
--------------------------------------------------------------

             Standard Nuclear Orientation (Angstroms)
    I     Atom           X                Y                Z
 ----------------------------------------------------------------
    1      C       0.0029050000    -0.5763120000     0.0189460000
    2      C       0.0029050000     0.2872880000     1.1183460000
    3      C       0.0030050000     1.6711880000     0.7956460000
    4      H       0.0029050000    -0.0815120000     2.1550460000
    5      C       0.0030050000     1.8918880000    -0.5935540000
    6      S       0.0029050000     0.3660880000    -1.4678540000
    7      C       0.0030050000     2.7589880000     1.8335460000
    8      H       0.0030050000     2.3332880000     2.8556460000
    9      H      -0.8893950000     3.4132880000     1.7451460000
   10      H       0.8954050000     3.4131880000     1.7451460000
   11      C       0.0029050000    -2.0170120000     0.0189460000
   12      H      -0.5369950000    -2.0167120000    -0.9164540000
   13      H       0.7124050000    -2.7208120000    -0.3905540000
   14      H      -0.8172950000    -2.5359120000     0.4925460000
   15      H       0.0030050000     2.8410880000    -1.1426540000
 ----------------------------------------------------------------

   10    -629.4219098258      5.74e-07  Convergence criterion met
 Total energy in the final basis set =     -629.4219098258
        RIMP2         total energy =      -630.5990345807 a.u.

                    Orbital Energies (a.u.)
 --------------------------------------------------------------

 Alpha MOs
 -- Occupied --
-91.9793 -11.2775 -11.2560 -11.2470 -11.2284 -11.2268 -11.2172  -8.9793
 -6.6602  -6.6597  -6.6591  -1.1608  -1.0553  -0.9957  -0.9457  -0.8819
 -0.7472  -0.7186  -0.6478  -0.5914  -0.5756  -0.5670  -0.5521  -0.5475
 -0.5087  -0.4874  -0.4649  -0.4479  -0.3388  -0.2998

          Ground-State Mulliken Net Atomic Charges

     Atom                 Charge (a.u.)
  ----------------------------------------
      1 C                     0.053847
      2 C                    -0.267795
      3 C                     0.037833
      4 H                     0.180739
      5 C                    -0.259463
      6 S                    -0.003142
      7 C                    -0.273358
      8 H                     0.101684
      9 H                     0.106943
     10 H                     0.107120
     11 C                    -0.371032
     12 H                     0.116199
     13 H                     0.142039
     14 H                     0.133874
     15 H                     0.194511
  ----------------------------------------
  Sum of atomic charges =     0.000000

                    Cartesian Multipole Moments
 -----------------------------------------------------------------
    Charge (ESU x 10^10)
                -0.0000
    Dipole Moment (Debye)
         X      -0.3447      Y      -0.1254      Z       0.9172
       Tot       0.9879
    Quadrupole Moments (Debye-Ang)
        XX     -53.8791     XY       0.6661     YY     -42.0688
        XZ      -0.2891     YZ       1.4571     ZZ     -48.7726

 Total job time:  159.72s(wall), 157.34s(cpu)
        *  Thank you very much for using Q-Chem.  Have a nice day.  *
