 Q-Chem 5.4, Q-Chem, Inc., Pleasanton, CA (2021)
 Q-Chem 5.4.0 for Intel X86 EM64T Linux

User input:
--------------------------------------------------------------
$molecule
0 1
C	-0.171661	-0.553189	0.017956
C	0.051839	0.281011	1.117356
C	0.410039	1.617711	0.794656
H	-0.043561	-0.075289	2.154056
C	0.467239	1.830811	-0.594544
S	0.072239	0.357111	-1.468844
C	0.691639	2.668411	1.832556
H	0.581439	2.257311	2.854656
H	-0.000961	3.531411	1.744156
H	1.722939	3.069411	1.744156
C	-0.171661	-1.993889	0.017956
H	-1.106861	-1.994089	-0.522144
H	-0.581261	-2.697689	0.727356
H	0.301939	-2.512789	-0.802244
H	0.712939	2.747711	-1.143644
$end

$rem
JOBTYPE		SP
EXCHANGE	HF
CORRELATION	pRIMP2
BASIS		cc-pvtz
METHOD		rimp2
AUX_BASIS	rimp2-cc-pvtz
SOLVENT_METHOD	PCM
PURECART	11111
SYMMETRY	false
MEM_TOTAL	110000
SCF_CONVERGENCE = 6
THRESH=10
$end

$solvent
dielectric 4.90
$end
--------------------------------------------------------------

             Standard Nuclear Orientation (Angstroms)
    I     Atom           X                Y                Z
 ----------------------------------------------------------------
    1      C      -0.1716610000    -0.5531890000     0.0179560000
    2      C       0.0518390000     0.2810110000     1.1173560000
    3      C       0.4100390000     1.6177110000     0.7946560000
    4      H      -0.0435610000    -0.0752890000     2.1540560000
    5      C       0.4672390000     1.8308110000    -0.5945440000
    6      S       0.0722390000     0.3571110000    -1.4688440000
    7      C       0.6916390000     2.6684110000     1.8325560000
    8      H       0.5814390000     2.2573110000     2.8546560000
    9      H      -0.0009610000     3.5314110000     1.7441560000
   10      H       1.7229390000     3.0694110000     1.7441560000
   11      C      -0.1716610000    -1.9938890000     0.0179560000
   12      H      -1.1068610000    -1.9940890000    -0.5221440000
   13      H      -0.5812610000    -2.6976890000     0.7273560000
   14      H       0.3019390000    -2.5127890000    -0.8022440000
   15      H       0.7129390000     2.7477110000    -1.1436440000
 ----------------------------------------------------------------

   10    -629.4168770462      6.22e-07  Convergence criterion met
 Total energy in the final basis set =     -629.4168770462
        RIMP2         total energy =      -630.5939049864 a.u.

                    Orbital Energies (a.u.)
 --------------------------------------------------------------

 Alpha MOs
 -- Occupied --
-91.9790 -11.2801 -11.2532 -11.2468 -11.2264 -11.2253 -11.2186  -8.9789
 -6.6599  -6.6594  -6.6587  -1.1606  -1.0555  -0.9960  -0.9444  -0.8820
 -0.7455  -0.7185  -0.6481  -0.5885  -0.5743  -0.5673  -0.5526  -0.5468
 -0.5090  -0.4904  -0.4631  -0.4544  -0.3387  -0.2913

          Ground-State Mulliken Net Atomic Charges

     Atom                 Charge (a.u.)
  ----------------------------------------
      1 C                     0.031521
      2 C                    -0.267530
      3 C                     0.036446
      4 H                     0.180142
      5 C                    -0.262126
      6 S                    -0.005846
      7 C                    -0.273487
      8 H                     0.101363
      9 H                     0.107048
     10 H                     0.106960
     11 C                    -0.376511
     12 H                     0.129105
     13 H                     0.161390
     14 H                     0.137057
     15 H                     0.194468
  ----------------------------------------
  Sum of atomic charges =     0.000000

                    Cartesian Multipole Moments
 -----------------------------------------------------------------
    Charge (ESU x 10^10)
                -0.0000
    Dipole Moment (Debye)
         X      -0.2637      Y      -0.4306      Z       1.0905
       Tot       1.2018
    Quadrupole Moments (Debye-Ang)
        XX     -53.4990     XY       3.5856     YY     -42.4935
        XZ      -0.2072     YZ       0.8160     ZZ     -48.6059

 Total job time:  155.11s(wall), 154.52s(cpu)
        *  Thank you very much for using Q-Chem.  Have a nice day.  *
