 Q-Chem 5.4, Q-Chem, Inc., Pleasanton, CA (2021)
 Q-Chem 5.4.0 for Intel X86 EM64T Linux

User input:
--------------------------------------------------------------
$molecule
0 1
C	-0.282205	-0.512744	0.013104
C	0.082795	0.269956	1.112504
C	0.667695	1.524156	0.789804
H	-0.073105	-0.064344	2.149204
C	0.760995	1.724156	-0.599396
S	0.116095	0.341356	-1.473696
C	1.127395	2.509956	1.827704
H	0.947495	2.124256	2.849804
H	0.595095	3.480156	1.739304
H	2.212695	2.725856	1.739304
C	-0.282205	-1.953444	0.013104
H	-1.217605	-1.953644	0.553004
H	0.127295	-2.657244	0.722604
H	-0.755805	-2.472344	-0.807096
H	1.162095	2.584456	-1.148496
$end

$rem
JOBTYPE		SP
EXCHANGE	HF
CORRELATION	pRIMP2
BASIS		cc-pvtz
METHOD		rimp2
AUX_BASIS	rimp2-cc-pvtz
SOLVENT_METHOD	PCM
PURECART	11111
SYMMETRY	false
MEM_TOTAL	110000
SCF_CONVERGENCE = 6
THRESH=10
$end

$solvent
dielectric 4.90
$end
--------------------------------------------------------------

             Standard Nuclear Orientation (Angstroms)
    I     Atom           X                Y                Z
 ----------------------------------------------------------------
    1      C      -0.2822050000    -0.5127440000     0.0131040000
    2      C       0.0827950000     0.2699560000     1.1125040000
    3      C       0.6676950000     1.5241560000     0.7898040000
    4      H      -0.0731050000    -0.0643440000     2.1492040000
    5      C       0.7609950000     1.7241560000    -0.5993960000
    6      S       0.1160950000     0.3413560000    -1.4736960000
    7      C       1.1273950000     2.5099560000     1.8277040000
    8      H       0.9474950000     2.1242560000     2.8498040000
    9      H       0.5950950000     3.4801560000     1.7393040000
   10      H       2.2126950000     2.7258560000     1.7393040000
   11      C      -0.2822050000    -1.9534440000     0.0131040000
   12      H      -1.2176050000    -1.9536440000     0.5530040000
   13      H       0.1272950000    -2.6572440000     0.7226040000
   14      H      -0.7558050000    -2.4723440000    -0.8070960000
   15      H       1.1620950000     2.5844560000    -1.1484960000
 ----------------------------------------------------------------

   10    -629.4085515121      5.66e-07  Convergence criterion met
 Total energy in the final basis set =     -629.4085515121
        RIMP2         total energy =      -630.5890327711 a.u.

                    Orbital Energies (a.u.)
 --------------------------------------------------------------

 Alpha MOs
 -- Occupied --
-91.9759 -11.2759 -11.2557 -11.2475 -11.2306 -11.2270 -11.2164  -8.9760
 -6.6570  -6.6563  -6.6558  -1.1612  -1.0543  -0.9977  -0.9409  -0.8834
 -0.7435  -0.7216  -0.6481  -0.5856  -0.5753  -0.5648  -0.5589  -0.5437
 -0.5116  -0.4919  -0.4611  -0.4463  -0.3374  -0.2913

          Ground-State Mulliken Net Atomic Charges

     Atom                 Charge (a.u.)
  ----------------------------------------
      1 C                     0.035023
      2 C                    -0.292076
      3 C                     0.047437
      4 H                     0.176052
      5 C                    -0.257781
      6 S                     0.002853
      7 C                    -0.272053
      8 H                     0.101357
      9 H                     0.106996
     10 H                     0.106884
     11 C                    -0.376020
     12 H                     0.133761
     13 H                     0.160875
     14 H                     0.134863
     15 H                     0.191830
  ----------------------------------------
  Sum of atomic charges =     0.000000

                    Cartesian Multipole Moments
 -----------------------------------------------------------------
    Charge (ESU x 10^10)
                -0.0000
    Dipole Moment (Debye)
         X      -0.0076      Y      -0.3249      Z       1.8330
       Tot       1.8616
    Quadrupole Moments (Debye-Ang)
        XX     -52.4255     XY       4.6679     YY     -43.8312
        XZ       0.2792     YZ      -0.5579     ZZ     -48.5076

 Total job time:  157.59s(wall), 154.97s(cpu)
        *  Thank you very much for using Q-Chem.  Have a nice day.  *
