 Q-Chem 5.4, Q-Chem, Inc., Pleasanton, CA (2021)
 Q-Chem 5.4.0 for Intel X86 EM64T Linux

User input:
--------------------------------------------------------------
$molecule
0 1
C	-0.179661	-0.553189	0.017710
C	0.043839	0.281011	1.117110
C	0.402039	1.617711	0.794410
H	-0.051561	-0.075289	2.153810
C	0.459239	1.830811	-0.594790
S	0.064239	0.357111	-1.469090
C	0.683639	2.668411	1.832310
H	0.573439	2.257311	2.854410
H	-0.008961	3.531411	1.743910
H	1.714939	3.069411	1.743910
C	-0.179661	-1.993889	0.017710
H	0.647739	-1.994089	-0.676390
H	-0.706161	-2.697689	-0.609890
H	0.429139	-2.512789	0.743210
H	0.704939	2.747711	-1.143890
$end

$rem
JOBTYPE		SP
EXCHANGE	HF
CORRELATION	pRIMP2
BASIS		cc-pvtz
METHOD		rimp2
AUX_BASIS	rimp2-cc-pvtz
SOLVENT_METHOD	PCM
PURECART	11111
SYMMETRY	false
MEM_TOTAL	110000
SCF_CONVERGENCE = 6
THRESH=10
$end

$solvent
dielectric 4.90
$end
--------------------------------------------------------------

             Standard Nuclear Orientation (Angstroms)
    I     Atom           X                Y                Z
 ----------------------------------------------------------------
    1      C      -0.1796610000    -0.5531890000     0.0177100000
    2      C       0.0438390000     0.2810110000     1.1171100000
    3      C       0.4020390000     1.6177110000     0.7944100000
    4      H      -0.0515610000    -0.0752890000     2.1538100000
    5      C       0.4592390000     1.8308110000    -0.5947900000
    6      S       0.0642390000     0.3571110000    -1.4690900000
    7      C       0.6836390000     2.6684110000     1.8323100000
    8      H       0.5734390000     2.2573110000     2.8544100000
    9      H      -0.0089610000     3.5314110000     1.7439100000
   10      H       1.7149390000     3.0694110000     1.7439100000
   11      C      -0.1796610000    -1.9938890000     0.0177100000
   12      H       0.6477390000    -1.9940890000    -0.6763900000
   13      H      -0.7061610000    -2.6976890000    -0.6098900000
   14      H       0.4291390000    -2.5127890000     0.7432100000
   15      H       0.7049390000     2.7477110000    -1.1438900000
 ----------------------------------------------------------------

   10    -629.4201191548      6.53e-07  Convergence criterion met
 Total energy in the final basis set =     -629.4201191548
        RIMP2         total energy =      -630.5968024206 a.u.

                    Orbital Energies (a.u.)
 --------------------------------------------------------------

 Alpha MOs
 -- Occupied --
-91.9767 -11.2807 -11.2540 -11.2469 -11.2278 -11.2267 -11.2191  -8.9769
 -6.6579  -6.6574  -6.6567  -1.1617  -1.0561  -0.9958  -0.9442  -0.8816
 -0.7464  -0.7189  -0.6473  -0.5908  -0.5771  -0.5665  -0.5507  -0.5479
 -0.5079  -0.4914  -0.4645  -0.4514  -0.3395  -0.2940

          Ground-State Mulliken Net Atomic Charges

     Atom                 Charge (a.u.)
  ----------------------------------------
      1 C                     0.060947
      2 C                    -0.308766
      3 C                     0.056020
      4 H                     0.180205
      5 C                    -0.266628
      6 S                    -0.005107
      7 C                    -0.271969
      8 H                     0.101434
      9 H                     0.107488
     10 H                     0.107076
     11 C                    -0.374288
     12 H                     0.131997
     13 H                     0.150977
     14 H                     0.137384
     15 H                     0.193228
  ----------------------------------------
  Sum of atomic charges =     0.000000

                    Cartesian Multipole Moments
 -----------------------------------------------------------------
    Charge (ESU x 10^10)
                -0.0000
    Dipole Moment (Debye)
         X       0.8869      Y      -0.3940      Z       1.0501
       Tot       1.4298
    Quadrupole Moments (Debye-Ang)
        XX     -53.7567     XY       1.1521     YY     -42.5839
        XZ       0.4273     YZ       1.2872     ZZ     -48.6843

 Total job time:  155.37s(wall), 154.60s(cpu)
        *  Thank you very much for using Q-Chem.  Have a nice day.  *
