 Q-Chem 5.4, Q-Chem, Inc., Pleasanton, CA (2021)
 Q-Chem 5.4.0 for Intel X86 EM64T Linux

User input:
--------------------------------------------------------------
$molecule
0 1
C	-0.286418	-0.512746	0.010154
C	0.078582	0.269954	1.109554
C	0.663482	1.524154	0.786854
H	-0.077318	-0.064346	2.146254
C	0.756782	1.724154	-0.602346
S	0.111882	0.341354	-1.476646
C	1.123182	2.509954	1.824754
H	0.943282	2.124254	2.846854
H	0.590882	3.480154	1.736354
H	2.208482	2.725854	1.736354
C	-0.286418	-1.953446	0.010154
H	-0.474118	-1.953146	1.073754
H	-1.093118	-2.657246	-0.132146
H	0.646282	-2.472346	0.174654
H	1.157882	2.584454	-1.151446
$end

$rem
JOBTYPE		SP
EXCHANGE	HF
CORRELATION	pRIMP2
BASIS		cc-pvtz
METHOD		rimp2
AUX_BASIS	rimp2-cc-pvtz
SOLVENT_METHOD	PCM
PURECART	11111
SYMMETRY	false
MEM_TOTAL	110000
SCF_CONVERGENCE = 6
THRESH=10
$end

$solvent
dielectric 4.90
$end
--------------------------------------------------------------

             Standard Nuclear Orientation (Angstroms)
    I     Atom           X                Y                Z
 ----------------------------------------------------------------
    1      C      -0.2864180000    -0.5127460000     0.0101540000
    2      C       0.0785820000     0.2699540000     1.1095540000
    3      C       0.6634820000     1.5241540000     0.7868540000
    4      H      -0.0773180000    -0.0643460000     2.1462540000
    5      C       0.7567820000     1.7241540000    -0.6023460000
    6      S       0.1118820000     0.3413540000    -1.4766460000
    7      C       1.1231820000     2.5099540000     1.8247540000
    8      H       0.9432820000     2.1242540000     2.8468540000
    9      H       0.5908820000     3.4801540000     1.7363540000
   10      H       2.2084820000     2.7258540000     1.7363540000
   11      C      -0.2864180000    -1.9534460000     0.0101540000
   12      H      -0.4741180000    -1.9531460000     1.0737540000
   13      H      -1.0931180000    -2.6572460000    -0.1321460000
   14      H       0.6462820000    -2.4723460000     0.1746540000
   15      H       1.1578820000     2.5844540000    -1.1514460000
 ----------------------------------------------------------------

   10    -629.4136070898      4.99e-07  Convergence criterion met
 Total energy in the final basis set =     -629.4136070898
        RIMP2         total energy =      -630.5941708511 a.u.

                    Orbital Energies (a.u.)
 --------------------------------------------------------------

 Alpha MOs
 -- Occupied --
-91.9738 -11.2729 -11.2610 -11.2474 -11.2372 -11.2278 -11.2149  -8.9741
 -6.6551  -6.6544  -6.6540  -1.1628  -1.0540  -0.9996  -0.9385  -0.8843
 -0.7428  -0.7255  -0.6470  -0.5919  -0.5788  -0.5662  -0.5588  -0.5420
 -0.5120  -0.4825  -0.4668  -0.4346  -0.3377  -0.3041

          Ground-State Mulliken Net Atomic Charges

     Atom                 Charge (a.u.)
  ----------------------------------------
      1 C                     0.030885
      2 C                    -0.266162
      3 C                     0.040004
      4 H                     0.176997
      5 C                    -0.246029
      6 S                    -0.005161
      7 C                    -0.270671
      8 H                     0.101297
      9 H                     0.106960
     10 H                     0.106949
     11 C                    -0.361539
     12 H                     0.115752
     13 H                     0.145538
     14 H                     0.131794
     15 H                     0.193385
  ----------------------------------------
  Sum of atomic charges =     0.000000

                    Cartesian Multipole Moments
 -----------------------------------------------------------------
    Charge (ESU x 10^10)
                -0.0000
    Dipole Moment (Debye)
         X       0.6230      Y       0.0223      Z       2.1798
       Tot       2.2671
    Quadrupole Moments (Debye-Ang)
        XX     -52.1898     XY       3.7695     YY     -43.9800
        XZ       0.0045     YZ      -1.0583     ZZ     -48.8645

 Total job time:  158.22s(wall), 156.39s(cpu)
        *  Thank you very much for using Q-Chem.  Have a nice day.  *
