 Q-Chem 5.4, Q-Chem, Inc., Pleasanton, CA (2021)
 Q-Chem 5.4.0 for Intel X86 EM64T Linux

User input:
--------------------------------------------------------------
$molecule
0 1
C	-0.519069	-0.333974	0.019883
C	0.142531	0.221126	1.119283
C	1.202631	1.110626	0.796583
H	-0.139969	-0.015974	2.155983
C	1.371731	1.252426	-0.592617
S	0.202831	0.271726	-1.466917
C	2.035931	1.809826	1.834483
H	1.709831	1.536226	2.856583
H	1.963531	2.914026	1.746083
H	3.110731	1.546726	1.746083
C	-0.519069	-1.774674	0.019883
H	-0.518969	-1.774374	-1.060117
H	0.300131	-2.478474	0.019983
H	-1.466169	-2.293574	0.019883
H	2.098831	1.862626	-1.141717
$end

$rem
JOBTYPE		SP
EXCHANGE	HF
CORRELATION	pRIMP2
BASIS		cc-pvtz
METHOD		rimp2
AUX_BASIS	rimp2-cc-pvtz
SOLVENT_METHOD	PCM
PURECART	11111
SYMMETRY	false
MEM_TOTAL	110000
SCF_CONVERGENCE = 6
THRESH=10
$end

$solvent
dielectric 4.90
$end
--------------------------------------------------------------

             Standard Nuclear Orientation (Angstroms)
    I     Atom           X                Y                Z
 ----------------------------------------------------------------
    1      C      -0.5190690000    -0.3339740000     0.0198830000
    2      C       0.1425310000     0.2211260000     1.1192830000
    3      C       1.2026310000     1.1106260000     0.7965830000
    4      H      -0.1399690000    -0.0159740000     2.1559830000
    5      C       1.3717310000     1.2524260000    -0.5926170000
    6      S       0.2028310000     0.2717260000    -1.4669170000
    7      C       2.0359310000     1.8098260000     1.8344830000
    8      H       1.7098310000     1.5362260000     2.8565830000
    9      H       1.9635310000     2.9140260000     1.7460830000
   10      H       3.1107310000     1.5467260000     1.7460830000
   11      C      -0.5190690000    -1.7746740000     0.0198830000
   12      H      -0.5189690000    -1.7743740000    -1.0601170000
   13      H       0.3001310000    -2.4784740000     0.0199830000
   14      H      -1.4661690000    -2.2935740000     0.0198830000
   15      H       2.0988310000     1.8626260000    -1.1417170000
 ----------------------------------------------------------------

   10    -629.3649018360      8.58e-07  Convergence criterion met
 Total energy in the final basis set =     -629.3649018360
        RIMP2         total energy =      -630.5530575922 a.u.

                    Orbital Energies (a.u.)
 --------------------------------------------------------------

 Alpha MOs
 -- Occupied --
-91.9754 -11.2766 -11.2499 -11.2476 -11.2462 -11.2281 -11.2074  -8.9764
 -6.6572  -6.6564  -6.6560  -1.1697  -1.0560  -0.9945  -0.9448  -0.8790
 -0.7536  -0.7252  -0.6448  -0.5873  -0.5799  -0.5696  -0.5508  -0.5471
 -0.5179  -0.4655  -0.4585  -0.4382  -0.3322  -0.3060

          Ground-State Mulliken Net Atomic Charges

     Atom                 Charge (a.u.)
  ----------------------------------------
      1 C                    -0.071967
      2 C                    -0.165037
      3 C                     0.008718
      4 H                     0.181549
      5 C                    -0.206423
      6 S                     0.004044
      7 C                    -0.269436
      8 H                     0.102032
      9 H                     0.106751
     10 H                     0.104368
     11 C                    -0.358749
     12 H                     0.114910
     13 H                     0.140271
     14 H                     0.111319
     15 H                     0.197650
  ----------------------------------------
  Sum of atomic charges =     0.000000

                    Cartesian Multipole Moments
 -----------------------------------------------------------------
    Charge (ESU x 10^10)
                -0.0000
    Dipole Moment (Debye)
         X       1.9422      Y       0.3755      Z       1.0860
       Tot       2.2567
    Quadrupole Moments (Debye-Ang)
        XX     -49.1328     XY       4.3976     YY     -48.4714
        XZ       0.0407     YZ       1.1168     ZZ     -48.1595

 Total job time:  160.04s(wall), 158.57s(cpu)
        *  Thank you very much for using Q-Chem.  Have a nice day.  *
