 Q-Chem 5.4, Q-Chem, Inc., Pleasanton, CA (2021)
 Q-Chem 5.4.0 for Intel X86 EM64T Linux

User input:
--------------------------------------------------------------
$molecule
0 1
C	-0.236863	-0.535397	0.015606
C	0.058537	0.276103	1.115006
C	0.531837	1.576503	0.792306
H	-0.067563	-0.070397	2.151706
C	0.607337	1.783903	-0.596894
S	0.085437	0.350203	-1.471194
C	0.903937	2.598703	1.830206
H	0.758337	2.198703	2.852306
H	0.289137	3.518703	1.741806
H	1.966337	2.908303	1.741806
C	-0.236863	-1.976097	0.015606
H	0.843137	-1.975797	0.015706
H	-0.236963	-2.679897	0.834806
H	-0.236863	-2.494997	-0.931494
H	0.932037	2.675903	-1.145994
$end

$rem
JOBTYPE		SP
EXCHANGE	HF
CORRELATION	pRIMP2
BASIS		cc-pvtz
METHOD		rimp2
AUX_BASIS	rimp2-cc-pvtz
SOLVENT_METHOD	PCM
PURECART	11111
SYMMETRY	false
MEM_TOTAL	110000
SCF_CONVERGENCE = 6
THRESH=10
$end

$solvent
dielectric 4.90
$end
--------------------------------------------------------------

   10    -629.4185436593      7.08e-07  Convergence criterion met
 Total energy in the final basis set =     -629.4185436593
        RIMP2         total energy =      -630.5949967375 a.u.
 Total job time:  158.92s(wall), 157.02s(cpu)
        *  Thank you very much for using Q-Chem.  Have a nice day.  *
 Q-Chem 5.4, Q-Chem, Inc., Pleasanton, CA (2021)
 Q-Chem 5.4.0 for Intel X86 EM64T Linux

User input:
--------------------------------------------------------------
$molecule
0 1
C	-0.236863	-0.535397	0.015606
C	0.058537	0.276103	1.115006
C	0.531837	1.576503	0.792306
H	-0.067563	-0.070397	2.151706
C	0.607337	1.783903	-0.596894
S	0.085437	0.350203	-1.471194
C	0.903937	2.598703	1.830206
H	0.758337	2.198703	2.852306
H	0.289137	3.518703	1.741806
H	1.966337	2.908303	1.741806
C	-0.236863	-1.976097	0.015606
H	0.843137	-1.975797	0.015706
H	-0.236963	-2.679897	0.834806
H	-0.236863	-2.494997	-0.931494
H	0.932037	2.675903	-1.145994
$end

$rem
JOBTYPE		SP
EXCHANGE	HF
CORRELATION	pRIMP2
BASIS		cc-pvtz
METHOD		rimp2
AUX_BASIS	rimp2-cc-pvtz
SOLVENT_METHOD	PCM
PURECART	11111
SYMMETRY	false
MEM_TOTAL	110000
SCF_CONVERGENCE = 6
THRESH=10
$end

$solvent
dielectric 4.90
$end
--------------------------------------------------------------

             Standard Nuclear Orientation (Angstroms)
    I     Atom           X                Y                Z
 ----------------------------------------------------------------
    1      C      -0.2368630000    -0.5353970000     0.0156060000
    2      C       0.0585370000     0.2761030000     1.1150060000
    3      C       0.5318370000     1.5765030000     0.7923060000
    4      H      -0.0675630000    -0.0703970000     2.1517060000
    5      C       0.6073370000     1.7839030000    -0.5968940000
    6      S       0.0854370000     0.3502030000    -1.4711940000
    7      C       0.9039370000     2.5987030000     1.8302060000
    8      H       0.7583370000     2.1987030000     2.8523060000
    9      H       0.2891370000     3.5187030000     1.7418060000
   10      H       1.9663370000     2.9083030000     1.7418060000
   11      C      -0.2368630000    -1.9760970000     0.0156060000
   12      H       0.8431370000    -1.9757970000     0.0157060000
   13      H      -0.2369630000    -2.6798970000     0.8348060000
   14      H      -0.2368630000    -2.4949970000    -0.9314940000
   15      H       0.9320370000     2.6759030000    -1.1459940000
 ----------------------------------------------------------------

   10    -629.4185436593      7.08e-07  Convergence criterion met
 Total energy in the final basis set =     -629.4185436593
        RIMP2         total energy =      -630.5949967375 a.u.

                    Orbital Energies (a.u.)
 --------------------------------------------------------------

 Alpha MOs
 -- Occupied --
-91.9788 -11.2845 -11.2503 -11.2474 -11.2266 -11.2227 -11.2224  -8.9786
 -6.6596  -6.6591  -6.6584  -1.1621  -1.0567  -0.9968  -0.9417  -0.8820
 -0.7444  -0.7193  -0.6493  -0.5864  -0.5774  -0.5661  -0.5539  -0.5466
 -0.5064  -0.4944  -0.4655  -0.4576  -0.3389  -0.2878

          Ground-State Mulliken Net Atomic Charges

     Atom                 Charge (a.u.)
  ----------------------------------------
      1 C                     0.058649
      2 C                    -0.318600
      3 C                     0.060611
      4 H                     0.174469
      5 C                    -0.283191
      6 S                     0.003419
      7 C                    -0.272000
      8 H                     0.101537
      9 H                     0.107521
     10 H                     0.106908
     11 C                    -0.376443
     12 H                     0.149809
     13 H                     0.160586
     14 H                     0.133755
     15 H                     0.192970
  ----------------------------------------
  Sum of atomic charges =     0.000000

                    Cartesian Multipole Moments
 -----------------------------------------------------------------
    Charge (ESU x 10^10)
                -0.0000
    Dipole Moment (Debye)
         X       1.1183      Y      -0.7175      Z       1.4061
       Tot       1.9346
    Quadrupole Moments (Debye-Ang)
        XX     -53.7764     XY       1.4236     YY     -42.8711
        XZ       0.1658     YZ       0.1099     ZZ     -48.5562

 Total job time:  156.39s(wall), 155.68s(cpu)
        *  Thank you very much for using Q-Chem.  Have a nice day.  *
