 Q-Chem 5.4, Q-Chem, Inc., Pleasanton, CA (2021)
 Q-Chem 5.4.0 for Intel X86 EM64T Linux

User input:
--------------------------------------------------------------
$molecule
0 1
C	-0.341377	-0.485419	0.019394
C	0.090423	0.262481	1.118794
C	0.782423	1.460981	0.796094
H	-0.093977	-0.056919	2.155494
C	0.892723	1.652081	-0.593106
S	0.129823	0.330681	-1.467406
C	1.326323	2.402981	1.833994
H	1.113523	2.034381	2.856094
H	0.880623	3.415781	1.745594
H	2.426323	2.523381	1.745594
C	-0.341377	-1.926119	0.019394
H	0.028123	-1.926319	-0.995406
H	-1.111177	-2.629919	-0.260806
H	0.548623	-2.445019	0.343294
H	1.367423	2.474081	-1.142206
$end

$rem
JOBTYPE		SP
EXCHANGE	HF
CORRELATION	pRIMP2
BASIS		cc-pvtz
METHOD		rimp2
AUX_BASIS	rimp2-cc-pvtz
SOLVENT_METHOD	PCM
PURECART	11111
SYMMETRY	false
MEM_TOTAL	110000
SCF_CONVERGENCE = 6
THRESH=10
$end

$solvent
dielectric 4.90
$end
--------------------------------------------------------------

   10    -629.4021898529      5.54e-07  Convergence criterion met
 Total energy in the final basis set =     -629.4021898529
        RIMP2         total energy =      -630.5836566116 a.u.
 Total job time:  159.16s(wall), 158.39s(cpu)
        *  Thank you very much for using Q-Chem.  Have a nice day.  *
 Q-Chem 5.4, Q-Chem, Inc., Pleasanton, CA (2021)
 Q-Chem 5.4.0 for Intel X86 EM64T Linux

User input:
--------------------------------------------------------------
$molecule
0 1
C	-0.341377	-0.485419	0.019394
C	0.090423	0.262481	1.118794
C	0.782423	1.460981	0.796094
H	-0.093977	-0.056919	2.155494
C	0.892723	1.652081	-0.593106
S	0.129823	0.330681	-1.467406
C	1.326323	2.402981	1.833994
H	1.113523	2.034381	2.856094
H	0.880623	3.415781	1.745594
H	2.426323	2.523381	1.745594
C	-0.341377	-1.926119	0.019394
H	0.028123	-1.926319	-0.995406
H	-1.111177	-2.629919	-0.260806
H	0.548623	-2.445019	0.343294
H	1.367423	2.474081	-1.142206
$end

$rem
JOBTYPE		SP
EXCHANGE	HF
CORRELATION	pRIMP2
BASIS		cc-pvtz
METHOD		rimp2
AUX_BASIS	rimp2-cc-pvtz
SOLVENT_METHOD	PCM
PURECART	11111
SYMMETRY	false
MEM_TOTAL	110000
SCF_CONVERGENCE = 6
THRESH=10
$end

$solvent
dielectric 4.90
$end
--------------------------------------------------------------

             Standard Nuclear Orientation (Angstroms)
    I     Atom           X                Y                Z
 ----------------------------------------------------------------
    1      C      -0.3413770000    -0.4854190000     0.0193940000
    2      C       0.0904230000     0.2624810000     1.1187940000
    3      C       0.7824230000     1.4609810000     0.7960940000
    4      H      -0.0939770000    -0.0569190000     2.1554940000
    5      C       0.8927230000     1.6520810000    -0.5931060000
    6      S       0.1298230000     0.3306810000    -1.4674060000
    7      C       1.3263230000     2.4029810000     1.8339940000
    8      H       1.1135230000     2.0343810000     2.8560940000
    9      H       0.8806230000     3.4157810000     1.7455940000
   10      H       2.4263230000     2.5233810000     1.7455940000
   11      C      -0.3413770000    -1.9261190000     0.0193940000
   12      H       0.0281230000    -1.9263190000    -0.9954060000
   13      H      -1.1111770000    -2.6299190000    -0.2608060000
   14      H       0.5486230000    -2.4450190000     0.3432940000
   15      H       1.3674230000     2.4740810000    -1.1422060000
 ----------------------------------------------------------------

   10    -629.4021898529      5.54e-07  Convergence criterion met
 Total energy in the final basis set =     -629.4021898529
        RIMP2         total energy =      -630.5836566116 a.u.

                    Orbital Energies (a.u.)
 --------------------------------------------------------------

 Alpha MOs
 -- Occupied --
-91.9770 -11.2697 -11.2621 -11.2471 -11.2341 -11.2272 -11.2132  -8.9775
 -6.6584  -6.6578  -6.6572  -1.1640  -1.0556  -0.9945  -0.9451  -0.8804
 -0.7493  -0.7204  -0.6460  -0.5908  -0.5771  -0.5655  -0.5520  -0.5479
 -0.5110  -0.4821  -0.4638  -0.4427  -0.3373  -0.3013

          Ground-State Mulliken Net Atomic Charges

     Atom                 Charge (a.u.)
  ----------------------------------------
      1 C                     0.023814
      2 C                    -0.262140
      3 C                     0.046742
      4 H                     0.178690
      5 C                    -0.248218
      6 S                    -0.004008
      7 C                    -0.270999
      8 H                     0.101849
      9 H                     0.107291
     10 H                     0.106045
     11 C                    -0.371479
     12 H                     0.123443
     13 H                     0.139129
     14 H                     0.134754
     15 H                     0.195088
  ----------------------------------------
  Sum of atomic charges =     0.000000

                    Cartesian Multipole Moments
 -----------------------------------------------------------------
    Charge (ESU x 10^10)
                -0.0000
    Dipole Moment (Debye)
         X       1.1293      Y       0.0591      Z       0.9536
       Tot       1.4792
    Quadrupole Moments (Debye-Ang)
        XX     -51.9343     XY       3.4513     YY     -44.8380
        XZ       0.4067     YZ       1.4115     ZZ     -48.5811

 Total job time:  158.77s(wall), 156.90s(cpu)
        *  Thank you very much for using Q-Chem.  Have a nice day.  *
