 Q-Chem 5.4, Q-Chem, Inc., Pleasanton, CA (2021)
 Q-Chem 5.4.0 for Intel X86 EM64T Linux

User input:
--------------------------------------------------------------
$molecule
0 1
C	-0.591556	-0.237129	0.012353
C	0.156344	0.194671	1.111753
C	1.354844	0.886571	0.789053
H	-0.163056	0.010271	2.148453
C	1.545944	0.996871	-0.600147
S	0.224644	0.234071	-1.474447
C	2.296944	1.430471	1.826953
H	1.928244	1.217571	2.849053
H	2.417344	2.530371	1.738553
H	3.309744	0.984671	1.738553
C	-0.591556	-1.677829	0.012353
H	0.235744	-1.677529	0.706653
H	-1.118156	-2.381629	0.639853
H	0.017244	-2.196729	-0.713247
H	2.368044	1.471471	-1.149247
$end

$rem
JOBTYPE		SP
EXCHANGE	HF
CORRELATION	pRIMP2
BASIS		cc-pvtz
METHOD		rimp2
AUX_BASIS	rimp2-cc-pvtz
SOLVENT_METHOD	PCM
PURECART	11111
SYMMETRY	false
MEM_TOTAL	110000
SCF_CONVERGENCE = 6
THRESH=10
$end

$solvent
dielectric 4.90
$end
--------------------------------------------------------------

             Standard Nuclear Orientation (Angstroms)
    I     Atom           X                Y                Z
 ----------------------------------------------------------------
    1      C      -0.5915560000    -0.2371290000     0.0123530000
    2      C       0.1563440000     0.1946710000     1.1117530000
    3      C       1.3548440000     0.8865710000     0.7890530000
    4      H      -0.1630560000     0.0102710000     2.1484530000
    5      C       1.5459440000     0.9968710000    -0.6001470000
    6      S       0.2246440000     0.2340710000    -1.4744470000
    7      C       2.2969440000     1.4304710000     1.8269530000
    8      H       1.9282440000     1.2175710000     2.8490530000
    9      H       2.4173440000     2.5303710000     1.7385530000
   10      H       3.3097440000     0.9846710000     1.7385530000
   11      C      -0.5915560000    -1.6778290000     0.0123530000
   12      H       0.2357440000    -1.6775290000     0.7066530000
   13      H      -1.1181560000    -2.3816290000     0.6398530000
   14      H       0.0172440000    -2.1967290000    -0.7132470000
   15      H       2.3680440000     1.4714710000    -1.1492470000
 ----------------------------------------------------------------

   11    -629.3333888976      7.82e-07  Convergence criterion met
 Total energy in the final basis set =     -629.3333888976
        RIMP2         total energy =      -630.5282630825 a.u.

                    Orbital Energies (a.u.)
 --------------------------------------------------------------

 Alpha MOs
 -- Occupied --
-91.9791 -11.2800 -11.2496 -11.2493 -11.2473 -11.2292 -11.2060  -8.9794
 -6.6602  -6.6594  -6.6591  -1.1782  -1.0581  -1.0018  -0.9338  -0.8809
 -0.7500  -0.7332  -0.6449  -0.5940  -0.5801  -0.5689  -0.5537  -0.5459
 -0.5142  -0.4789  -0.4542  -0.4472  -0.3293  -0.2883

          Ground-State Mulliken Net Atomic Charges

     Atom                 Charge (a.u.)
  ----------------------------------------
      1 C                    -0.115523
      2 C                    -0.103417
      3 C                    -0.034411
      4 H                     0.185008
      5 C                    -0.199263
      6 S                     0.031010
      7 C                    -0.267417
      8 H                     0.102204
      9 H                     0.107240
     10 H                     0.103232
     11 C                    -0.373740
     12 H                     0.117805
     13 H                     0.120546
     14 H                     0.127646
     15 H                     0.199081
  ----------------------------------------
  Sum of atomic charges =     0.000000

                    Cartesian Multipole Moments
 -----------------------------------------------------------------
    Charge (ESU x 10^10)
                -0.0000
    Dipole Moment (Debye)
         X       2.7857      Y       0.0137      Z       1.9069
       Tot       3.3759
    Quadrupole Moments (Debye-Ang)
        XX     -48.8412     XY       3.5549     YY     -50.3717
        XZ      -0.7643     YZ      -0.7322     ZZ     -47.3830

 Total job time:  181.18s(wall), 179.23s(cpu)
        *  Thank you very much for using Q-Chem.  Have a nice day.  *
