 Q-Chem 5.4, Q-Chem, Inc., Pleasanton, CA (2021)
 Q-Chem 5.4.0 for Intel X86 EM64T Linux

User input:
--------------------------------------------------------------
$molecule
0 1
C	-0.173375	-0.553191	0.019394
C	0.050125	0.281009	1.118794
C	0.408325	1.617709	0.796094
H	-0.045275	-0.075291	2.155494
C	0.465525	1.830809	-0.593106
S	0.070525	0.357109	-1.467406
C	0.689925	2.668409	1.833994
H	0.579725	2.257309	2.856094
H	-0.002675	3.531409	1.745594
H	1.721225	3.069409	1.745594
C	-0.173375	-1.993891	0.019394
H	-0.542675	-1.993591	-0.995506
H	0.596425	-2.697691	-0.260706
H	-1.063375	-2.512791	0.343294
H	0.711225	2.747709	-1.142206
$end

$rem
JOBTYPE		SP
EXCHANGE	HF
CORRELATION	pRIMP2
BASIS		cc-pvtz
METHOD		rimp2
AUX_BASIS	rimp2-cc-pvtz
SOLVENT_METHOD	PCM
PURECART	11111
SYMMETRY	false
MEM_TOTAL	110000
SCF_CONVERGENCE = 6
THRESH=10
$end

$solvent
dielectric 4.90
$end
--------------------------------------------------------------

             Standard Nuclear Orientation (Angstroms)
    I     Atom           X                Y                Z
 ----------------------------------------------------------------
    1      C      -0.1733750000    -0.5531910000     0.0193940000
    2      C       0.0501250000     0.2810090000     1.1187940000
    3      C       0.4083250000     1.6177090000     0.7960940000
    4      H      -0.0452750000    -0.0752910000     2.1554940000
    5      C       0.4655250000     1.8308090000    -0.5931060000
    6      S       0.0705250000     0.3571090000    -1.4674060000
    7      C       0.6899250000     2.6684090000     1.8339940000
    8      H       0.5797250000     2.2573090000     2.8560940000
    9      H      -0.0026750000     3.5314090000     1.7455940000
   10      H       1.7212250000     3.0694090000     1.7455940000
   11      C      -0.1733750000    -1.9938910000     0.0193940000
   12      H      -0.5426750000    -1.9935910000    -0.9955060000
   13      H       0.5964250000    -2.6976910000    -0.2607060000
   14      H      -1.0633750000    -2.5127910000     0.3432940000
   15      H       0.7112250000     2.7477090000    -1.1422060000
 ----------------------------------------------------------------

   10    -629.4159928278      5.31e-07  Convergence criterion met
 Total energy in the final basis set =     -629.4159928278
        RIMP2         total energy =      -630.5948638963 a.u.

                    Orbital Energies (a.u.)
 --------------------------------------------------------------

 Alpha MOs
 -- Occupied --
-91.9801 -11.2731 -11.2591 -11.2472 -11.2303 -11.2269 -11.2154  -8.9800
 -6.6609  -6.6604  -6.6598  -1.1613  -1.0548  -0.9955  -0.9460  -0.8818
 -0.7479  -0.7191  -0.6474  -0.5905  -0.5757  -0.5681  -0.5521  -0.5472
 -0.5106  -0.4824  -0.4647  -0.4453  -0.3382  -0.3025

          Ground-State Mulliken Net Atomic Charges

     Atom                 Charge (a.u.)
  ----------------------------------------
      1 C                     0.031022
      2 C                    -0.255471
      3 C                     0.036219
      4 H                     0.179990
      5 C                    -0.253352
      6 S                    -0.001212
      7 C                    -0.272853
      8 H                     0.101853
      9 H                     0.106776
     10 H                     0.106730
     11 C                    -0.360032
     12 H                     0.111784
     13 H                     0.140925
     14 H                     0.132778
     15 H                     0.194845
  ----------------------------------------
  Sum of atomic charges =     0.000000

                    Cartesian Multipole Moments
 -----------------------------------------------------------------
    Charge (ESU x 10^10)
                -0.0000
    Dipole Moment (Debye)
         X       0.1855      Y       0.0653      Z       0.9176
       Tot       0.9385
    Quadrupole Moments (Debye-Ang)
        XX     -53.1517     XY       2.6358     YY     -42.8349
        XZ      -0.0979     YZ       1.3881     ZZ     -48.7631

 Total job time:  155.12s(wall), 154.31s(cpu)
        *  Thank you very much for using Q-Chem.  Have a nice day.  *
