 Q-Chem 5.4, Q-Chem, Inc., Pleasanton, CA (2021)
 Q-Chem 5.4.0 for Intel X86 EM64T Linux

User input:
--------------------------------------------------------------
$molecule
0 1
C	-0.004380	-0.576312	0.017231
C	-0.004380	0.287288	1.116631
C	-0.004280	1.671188	0.793931
H	-0.004380	-0.081512	2.153331
C	-0.004280	1.891888	-0.595269
S	-0.004380	0.366088	-1.469569
C	-0.004280	2.758988	1.831831
H	-0.004280	2.333288	2.853931
H	-0.896680	3.413288	1.743431
H	0.888120	3.413188	1.743431
C	-0.004380	-2.017012	0.017231
H	1.010520	-2.016712	-0.352069
H	0.275720	-2.720812	0.787031
H	-0.328280	-2.535912	-0.872769
H	-0.004280	2.841088	-1.144369
$end

$rem
JOBTYPE		SP
EXCHANGE	HF
CORRELATION	pRIMP2
BASIS		cc-pvtz
METHOD		rimp2
AUX_BASIS	rimp2-cc-pvtz
SOLVENT_METHOD	PCM
PURECART	11111
SYMMETRY	false
MEM_TOTAL	110000
SCF_CONVERGENCE = 6
THRESH=10
$end

$solvent
dielectric 4.90
$end
--------------------------------------------------------------

   10    -629.4241547430      6.99e-07  Convergence criterion met
 Total energy in the final basis set =     -629.4241547430
        RIMP2         total energy =      -630.5991126475 a.u.
 Total job time:  159.66s(wall), 156.88s(cpu)
        *  Thank you very much for using Q-Chem.  Have a nice day.  *
 Q-Chem 5.4, Q-Chem, Inc., Pleasanton, CA (2021)
 Q-Chem 5.4.0 for Intel X86 EM64T Linux

User input:
--------------------------------------------------------------
$molecule
0 1
C	-0.004380	-0.576312	0.017231
C	-0.004380	0.287288	1.116631
C	-0.004280	1.671188	0.793931
H	-0.004380	-0.081512	2.153331
C	-0.004280	1.891888	-0.595269
S	-0.004380	0.366088	-1.469569
C	-0.004280	2.758988	1.831831
H	-0.004280	2.333288	2.853931
H	-0.896680	3.413288	1.743431
H	0.888120	3.413188	1.743431
C	-0.004380	-2.017012	0.017231
H	1.010520	-2.016712	-0.352069
H	0.275720	-2.720812	0.787031
H	-0.328280	-2.535912	-0.872769
H	-0.004280	2.841088	-1.144369
$end

$rem
JOBTYPE		SP
EXCHANGE	HF
CORRELATION	pRIMP2
BASIS		cc-pvtz
METHOD		rimp2
AUX_BASIS	rimp2-cc-pvtz
SOLVENT_METHOD	PCM
PURECART	11111
SYMMETRY	false
MEM_TOTAL	110000
SCF_CONVERGENCE = 6
THRESH=10
$end

$solvent
dielectric 4.90
$end
--------------------------------------------------------------

             Standard Nuclear Orientation (Angstroms)
    I     Atom           X                Y                Z
 ----------------------------------------------------------------
    1      C      -0.0043800000    -0.5763120000     0.0172310000
    2      C      -0.0043800000     0.2872880000     1.1166310000
    3      C      -0.0042800000     1.6711880000     0.7939310000
    4      H      -0.0043800000    -0.0815120000     2.1533310000
    5      C      -0.0042800000     1.8918880000    -0.5952690000
    6      S      -0.0043800000     0.3660880000    -1.4695690000
    7      C      -0.0042800000     2.7589880000     1.8318310000
    8      H      -0.0042800000     2.3332880000     2.8539310000
    9      H      -0.8966800000     3.4132880000     1.7434310000
   10      H       0.8881200000     3.4131880000     1.7434310000
   11      C      -0.0043800000    -2.0170120000     0.0172310000
   12      H       1.0105200000    -2.0167120000    -0.3520690000
   13      H       0.2757200000    -2.7208120000     0.7870310000
   14      H      -0.3282800000    -2.5359120000    -0.8727690000
   15      H      -0.0042800000     2.8410880000    -1.1443690000
 ----------------------------------------------------------------

   10    -629.4241547430      6.99e-07  Convergence criterion met
 Total energy in the final basis set =     -629.4241547430
        RIMP2         total energy =      -630.5991126475 a.u.

                    Orbital Energies (a.u.)
 --------------------------------------------------------------

 Alpha MOs
 -- Occupied --
-91.9788 -11.2845 -11.2499 -11.2467 -11.2263 -11.2229 -11.2217  -8.9787
 -6.6597  -6.6592  -6.6585  -1.1603  -1.0563  -0.9964  -0.9438  -0.8821
 -0.7448  -0.7181  -0.6494  -0.5877  -0.5755  -0.5664  -0.5526  -0.5474
 -0.5074  -0.4936  -0.4658  -0.4561  -0.3391  -0.2898

          Ground-State Mulliken Net Atomic Charges

     Atom                 Charge (a.u.)
  ----------------------------------------
      1 C                     0.060698
      2 C                    -0.301210
      3 C                     0.047579
      4 H                     0.178865
      5 C                    -0.275823
      6 S                    -0.002923
      7 C                    -0.273906
      8 H                     0.101377
      9 H                     0.107239
     10 H                     0.107273
     11 C                    -0.381351
     12 H                     0.137206
     13 H                     0.164100
     14 H                     0.137087
     15 H                     0.193788
  ----------------------------------------
  Sum of atomic charges =     0.000000

                    Cartesian Multipole Moments
 -----------------------------------------------------------------
    Charge (ESU x 10^10)
                -0.0000
    Dipole Moment (Debye)
         X       0.6819      Y      -0.6558      Z       1.1520
       Tot       1.4907
    Quadrupole Moments (Debye-Ang)
        XX     -54.3365     XY      -1.4854     YY     -41.6752
        XZ       0.2338     YZ       0.6904     ZZ     -48.6360

 Total job time:  156.20s(wall), 155.16s(cpu)
        *  Thank you very much for using Q-Chem.  Have a nice day.  *
