 Q-Chem 5.4, Q-Chem, Inc., Pleasanton, CA (2021)
 Q-Chem 5.4.0 for Intel X86 EM64T Linux

User input:
--------------------------------------------------------------
$molecule
0 1
C	-0.003365	-0.576312	0.018590
C	-0.003365	0.287288	1.117990
C	-0.003265	1.671188	0.795290
H	-0.003365	-0.081512	2.154690
C	-0.003265	1.891888	-0.593910
S	-0.003365	0.366088	-1.468210
C	-0.003265	2.758988	1.833190
H	-0.003265	2.333288	2.855290
H	-0.895665	3.413288	1.744790
H	0.889135	3.413188	1.744790
C	-0.003365	-2.017012	0.018590
H	0.824035	-2.016712	-0.675510
H	0.523135	-2.720812	0.646190
H	-0.612165	-2.535912	-0.706910
H	-0.003265	2.841088	-1.143010
$end

$rem
JOBTYPE		SP
EXCHANGE	HF
CORRELATION	pRIMP2
BASIS		cc-pvtz
METHOD		rimp2
AUX_BASIS	rimp2-cc-pvtz
SOLVENT_METHOD	PCM
PURECART	11111
SYMMETRY	false
MEM_TOTAL	110000
SCF_CONVERGENCE = 6
THRESH=10
$end

$solvent
dielectric 4.90
$end
--------------------------------------------------------------

   10    -629.4229812936      6.49e-07  Convergence criterion met
 Total energy in the final basis set =     -629.4229812936
        RIMP2         total energy =      -630.5987617745 a.u.
 Total job time:  159.03s(wall), 156.66s(cpu)
        *  Thank you very much for using Q-Chem.  Have a nice day.  *
 Q-Chem 5.4, Q-Chem, Inc., Pleasanton, CA (2021)
 Q-Chem 5.4.0 for Intel X86 EM64T Linux

User input:
--------------------------------------------------------------
$molecule
0 1
C	-0.003365	-0.576312	0.018590
C	-0.003365	0.287288	1.117990
C	-0.003265	1.671188	0.795290
H	-0.003365	-0.081512	2.154690
C	-0.003265	1.891888	-0.593910
S	-0.003365	0.366088	-1.468210
C	-0.003265	2.758988	1.833190
H	-0.003265	2.333288	2.855290
H	-0.895665	3.413288	1.744790
H	0.889135	3.413188	1.744790
C	-0.003365	-2.017012	0.018590
H	0.824035	-2.016712	-0.675510
H	0.523135	-2.720812	0.646190
H	-0.612165	-2.535912	-0.706910
H	-0.003265	2.841088	-1.143010
$end

$rem
JOBTYPE		SP
EXCHANGE	HF
CORRELATION	pRIMP2
BASIS		cc-pvtz
METHOD		rimp2
AUX_BASIS	rimp2-cc-pvtz
SOLVENT_METHOD	PCM
PURECART	11111
SYMMETRY	false
MEM_TOTAL	110000
SCF_CONVERGENCE = 6
THRESH=10
$end

$solvent
dielectric 4.90
$end
--------------------------------------------------------------

             Standard Nuclear Orientation (Angstroms)
    I     Atom           X                Y                Z
 ----------------------------------------------------------------
    1      C      -0.0033650000    -0.5763120000     0.0185900000
    2      C      -0.0033650000     0.2872880000     1.1179900000
    3      C      -0.0032650000     1.6711880000     0.7952900000
    4      H      -0.0033650000    -0.0815120000     2.1546900000
    5      C      -0.0032650000     1.8918880000    -0.5939100000
    6      S      -0.0033650000     0.3660880000    -1.4682100000
    7      C      -0.0032650000     2.7589880000     1.8331900000
    8      H      -0.0032650000     2.3332880000     2.8552900000
    9      H      -0.8956650000     3.4132880000     1.7447900000
   10      H       0.8891350000     3.4131880000     1.7447900000
   11      C      -0.0033650000    -2.0170120000     0.0185900000
   12      H       0.8240350000    -2.0167120000    -0.6755100000
   13      H       0.5231350000    -2.7208120000     0.6461900000
   14      H      -0.6121650000    -2.5359120000    -0.7069100000
   15      H      -0.0032650000     2.8410880000    -1.1430100000
 ----------------------------------------------------------------

   10    -629.4229812936      6.49e-07  Convergence criterion met
 Total energy in the final basis set =     -629.4229812936
        RIMP2         total energy =      -630.5987617745 a.u.

                    Orbital Energies (a.u.)
 --------------------------------------------------------------

 Alpha MOs
 -- Occupied --
-91.9790 -11.2813 -11.2530 -11.2467 -11.2265 -11.2253 -11.2194  -8.9789
 -6.6599  -6.6594  -6.6587  -1.1605  -1.0559  -0.9958  -0.9450  -0.8818
 -0.7459  -0.7181  -0.6490  -0.5895  -0.5755  -0.5656  -0.5530  -0.5474
 -0.5080  -0.4906  -0.4654  -0.4529  -0.3393  -0.2940

          Ground-State Mulliken Net Atomic Charges

     Atom                 Charge (a.u.)
  ----------------------------------------
      1 C                     0.056657
      2 C                    -0.287182
      3 C                     0.042802
      4 H                     0.180630
      5 C                    -0.265469
      6 S                    -0.004705
      7 C                    -0.273610
      8 H                     0.101484
      9 H                     0.107255
     10 H                     0.107110
     11 C                    -0.377084
     12 H                     0.126149
     13 H                     0.159311
     14 H                     0.132377
     15 H                     0.194274
  ----------------------------------------
  Sum of atomic charges =     0.000000

                    Cartesian Multipole Moments
 -----------------------------------------------------------------
    Charge (ESU x 10^10)
                -0.0000
    Dipole Moment (Debye)
         X       0.5265      Y      -0.4048      Z       0.9920
       Tot       1.1938
    Quadrupole Moments (Debye-Ang)
        XX     -54.1198     XY      -1.2340     YY     -41.8347
        XZ       0.3221     YZ       1.0766     ZZ     -48.7182

 Total job time:  156.60s(wall), 155.15s(cpu)
        *  Thank you very much for using Q-Chem.  Have a nice day.  *
