 Q-Chem 5.4, Q-Chem, Inc., Pleasanton, CA (2021)
 Q-Chem 5.4.0 for Intel X86 EM64T Linux

User input:
--------------------------------------------------------------
$molecule
0 1
C	-0.434631	-0.417594	0.010353
C	0.120469	0.243906	1.109753
C	1.010069	1.304106	0.787053
H	-0.116531	-0.038594	2.146453
C	1.151969	1.473106	-0.602147
S	0.171169	0.304306	-1.476447
C	1.709269	2.137306	1.824953
H	1.435669	1.811306	2.847053
H	1.446269	3.212106	1.736553
H	2.813469	2.064906	1.736553
C	-0.434631	-1.858294	0.010353
H	-0.622331	-1.858494	1.073953
H	0.372069	-2.562094	0.152653
H	-1.367331	-2.377194	-0.154147
H	1.762069	2.200206	-1.151247
$end

$rem
JOBTYPE		SP
EXCHANGE	HF
CORRELATION	pRIMP2
BASIS		cc-pvtz
METHOD		rimp2
AUX_BASIS	rimp2-cc-pvtz
SOLVENT_METHOD	PCM
PURECART	11111
SYMMETRY	false
MEM_TOTAL	110000
SCF_CONVERGENCE = 6
THRESH=10
$end

$solvent
dielectric 4.90
$end
--------------------------------------------------------------

             Standard Nuclear Orientation (Angstroms)
    I     Atom           X                Y                Z
 ----------------------------------------------------------------
    1      C      -0.4346310000    -0.4175940000     0.0103530000
    2      C       0.1204690000     0.2439060000     1.1097530000
    3      C       1.0100690000     1.3041060000     0.7870530000
    4      H      -0.1165310000    -0.0385940000     2.1464530000
    5      C       1.1519690000     1.4731060000    -0.6021470000
    6      S       0.1711690000     0.3043060000    -1.4764470000
    7      C       1.7092690000     2.1373060000     1.8249530000
    8      H       1.4356690000     1.8113060000     2.8470530000
    9      H       1.4462690000     3.2121060000     1.7365530000
   10      H       2.8134690000     2.0649060000     1.7365530000
   11      C      -0.4346310000    -1.8582940000     0.0103530000
   12      H      -0.6223310000    -1.8584940000     1.0739530000
   13      H       0.3720690000    -2.5620940000     0.1526530000
   14      H      -1.3673310000    -2.3771940000    -0.1541470000
   15      H       1.7620690000     2.2002060000    -1.1512470000
 ----------------------------------------------------------------

   10    -629.3913728109      6.51e-07  Convergence criterion met
 Total energy in the final basis set =     -629.3913728109
        RIMP2         total energy =      -630.5763846536 a.u.

                    Orbital Energies (a.u.)
 --------------------------------------------------------------

 Alpha MOs
 -- Occupied --
-91.9730 -11.2694 -11.2614 -11.2481 -11.2436 -11.2284 -11.2108  -8.9736
 -6.6545  -6.6537  -6.6533  -1.1660  -1.0538  -0.9998  -0.9372  -0.8842
 -0.7444  -0.7286  -0.6462  -0.5869  -0.5818  -0.5694  -0.5555  -0.5420
 -0.5165  -0.4750  -0.4645  -0.4294  -0.3366  -0.3054

          Ground-State Mulliken Net Atomic Charges

     Atom                 Charge (a.u.)
  ----------------------------------------
      1 C                    -0.026585
      2 C                    -0.215029
      3 C                     0.021862
      4 H                     0.177893
      5 C                    -0.222664
      6 S                    -0.000289
      7 C                    -0.268921
      8 H                     0.101405
      9 H                     0.106880
     10 H                     0.106142
     11 C                    -0.351203
     12 H                     0.109531
     13 H                     0.150256
     14 H                     0.115908
     15 H                     0.194815
  ----------------------------------------
  Sum of atomic charges =     0.000000

                    Cartesian Multipole Moments
 -----------------------------------------------------------------
    Charge (ESU x 10^10)
                -0.0000
    Dipole Moment (Debye)
         X       1.2787      Y       0.2726      Z       2.2300
       Tot       2.5850
    Quadrupole Moments (Debye-Ang)
        XX     -50.2994     XY       4.5263     YY     -46.5020
        XZ      -0.1641     YZ      -1.0953     ZZ     -48.6187

 Total job time:  159.44s(wall), 156.60s(cpu)
        *  Thank you very much for using Q-Chem.  Have a nice day.  *
