 Q-Chem 5.4, Q-Chem, Inc., Pleasanton, CA (2021)
 Q-Chem 5.4.0 for Intel X86 EM64T Linux

User input:
--------------------------------------------------------------
$molecule
0 1
C	0.001910	-0.576309	0.019522
C	0.001910	0.287291	1.118922
C	0.002010	1.671191	0.796222
H	0.001910	-0.081509	2.155622
C	0.002010	1.891891	-0.592978
S	0.001910	0.366091	-1.467278
C	0.002010	2.758991	1.834122
H	0.002010	2.333291	2.856222
H	-0.890390	3.413291	1.745722
H	0.894410	3.413191	1.745722
C	0.001910	-2.017009	0.019522
H	-0.537990	-2.017209	-0.915878
H	-0.707590	-2.720809	0.429022
H	0.822110	-2.535909	-0.454078
H	0.002010	2.841091	-1.142078
$end

$rem
JOBTYPE		SP
EXCHANGE	HF
CORRELATION	pRIMP2
BASIS		cc-pvtz
METHOD		rimp2
AUX_BASIS	rimp2-cc-pvtz
SOLVENT_METHOD	PCM
PURECART	11111
SYMMETRY	false
MEM_TOTAL	110000
SCF_CONVERGENCE = 6
THRESH=10
$end

$solvent
dielectric 4.90
$end
--------------------------------------------------------------

   10    -629.4215588772      5.88e-07  Convergence criterion met
 Total energy in the final basis set =     -629.4215588772
        RIMP2         total energy =      -630.5984702507 a.u.
 Total job time:  161.38s(wall), 156.59s(cpu)
        *  Thank you very much for using Q-Chem.  Have a nice day.  *
 Q-Chem 5.4, Q-Chem, Inc., Pleasanton, CA (2021)
 Q-Chem 5.4.0 for Intel X86 EM64T Linux

User input:
--------------------------------------------------------------
$molecule
0 1
C	0.001910	-0.576309	0.019522
C	0.001910	0.287291	1.118922
C	0.002010	1.671191	0.796222
H	0.001910	-0.081509	2.155622
C	0.002010	1.891891	-0.592978
S	0.001910	0.366091	-1.467278
C	0.002010	2.758991	1.834122
H	0.002010	2.333291	2.856222
H	-0.890390	3.413291	1.745722
H	0.894410	3.413191	1.745722
C	0.001910	-2.017009	0.019522
H	-0.537990	-2.017209	-0.915878
H	-0.707590	-2.720809	0.429022
H	0.822110	-2.535909	-0.454078
H	0.002010	2.841091	-1.142078
$end

$rem
JOBTYPE		SP
EXCHANGE	HF
CORRELATION	pRIMP2
BASIS		cc-pvtz
METHOD		rimp2
AUX_BASIS	rimp2-cc-pvtz
SOLVENT_METHOD	PCM
PURECART	11111
SYMMETRY	false
MEM_TOTAL	110000
SCF_CONVERGENCE = 6
THRESH=10
$end

$solvent
dielectric 4.90
$end
--------------------------------------------------------------

             Standard Nuclear Orientation (Angstroms)
    I     Atom           X                Y                Z
 ----------------------------------------------------------------
    1      C       0.0019100000    -0.5763090000     0.0195220000
    2      C       0.0019100000     0.2872910000     1.1189220000
    3      C       0.0020100000     1.6711910000     0.7962220000
    4      H       0.0019100000    -0.0815090000     2.1556220000
    5      C       0.0020100000     1.8918910000    -0.5929780000
    6      S       0.0019100000     0.3660910000    -1.4672780000
    7      C       0.0020100000     2.7589910000     1.8341220000
    8      H       0.0020100000     2.3332910000     2.8562220000
    9      H      -0.8903900000     3.4132910000     1.7457220000
   10      H       0.8944100000     3.4131910000     1.7457220000
   11      C       0.0019100000    -2.0170090000     0.0195220000
   12      H      -0.5379900000    -2.0172090000    -0.9158780000
   13      H      -0.7075900000    -2.7208090000     0.4290220000
   14      H       0.8221100000    -2.5359090000    -0.4540780000
   15      H       0.0020100000     2.8410910000    -1.1420780000
 ----------------------------------------------------------------

   10    -629.4215588772      5.88e-07  Convergence criterion met
 Total energy in the final basis set =     -629.4215588772
        RIMP2         total energy =      -630.5984702507 a.u.

                    Orbital Energies (a.u.)
 --------------------------------------------------------------

 Alpha MOs
 -- Occupied --
-91.9799 -11.2776 -11.2559 -11.2469 -11.2276 -11.2267 -11.2172  -8.9797
 -6.6607  -6.6602  -6.6595  -1.1607  -1.0554  -0.9955  -0.9459  -0.8817
 -0.7471  -0.7183  -0.6486  -0.5908  -0.5753  -0.5653  -0.5538  -0.5473
 -0.5085  -0.4877  -0.4650  -0.4482  -0.3390  -0.2994

          Ground-State Mulliken Net Atomic Charges

     Atom                 Charge (a.u.)
  ----------------------------------------
      1 C                     0.055385
      2 C                    -0.272903
      3 C                     0.040474
      4 H                     0.180611
      5 C                    -0.260313
      6 S                    -0.003182
      7 C                    -0.273521
      8 H                     0.101720
      9 H                     0.106940
     10 H                     0.107122
     11 C                    -0.373764
     12 H                     0.117330
     13 H                     0.153470
     14 H                     0.125804
     15 H                     0.194825
  ----------------------------------------
  Sum of atomic charges =     0.000000

                    Cartesian Multipole Moments
 -----------------------------------------------------------------
    Charge (ESU x 10^10)
                -0.0000
    Dipole Moment (Debye)
         X      -0.3202      Y      -0.1415      Z       0.8926
       Tot       0.9588
    Quadrupole Moments (Debye-Ang)
        XX     -53.8704     XY       0.8493     YY     -42.0328
        XZ      -0.2708     YZ       1.3282     ZZ     -48.7936

 Total job time:  156.27s(wall), 155.04s(cpu)
        *  Thank you very much for using Q-Chem.  Have a nice day.  *
