 Q-Chem 5.4, Q-Chem, Inc., Pleasanton, CA (2021)
 Q-Chem 5.4.0 for Intel X86 EM64T Linux

User input:
--------------------------------------------------------------
$molecule
0 1
C	-0.518235	-0.333974	0.019710
C	0.143365	0.221126	1.119110
C	1.203465	1.110626	0.796410
H	-0.139135	-0.015974	2.155810
C	1.372565	1.252426	-0.592790
S	0.203665	0.271726	-1.467090
C	2.036765	1.809826	1.834310
H	1.710665	1.536226	2.856410
H	1.964365	2.914026	1.745910
H	3.111565	1.546726	1.745910
C	-0.518235	-1.774674	0.019710
H	-0.705635	-1.774374	-1.043890
H	0.288565	-2.478474	-0.122490
H	-1.450935	-2.293574	0.184210
H	2.099665	1.862626	-1.141890
$end

$rem
JOBTYPE		SP
EXCHANGE	HF
CORRELATION	pRIMP2
BASIS		cc-pvtz
METHOD		rimp2
AUX_BASIS	rimp2-cc-pvtz
SOLVENT_METHOD	PCM
PURECART	11111
SYMMETRY	false
MEM_TOTAL	110000
SCF_CONVERGENCE = 6
THRESH=10
$end

$solvent
dielectric 4.90
$end
--------------------------------------------------------------

             Standard Nuclear Orientation (Angstroms)
    I     Atom           X                Y                Z
 ----------------------------------------------------------------
    1      C      -0.5182350000    -0.3339740000     0.0197100000
    2      C       0.1433650000     0.2211260000     1.1191100000
    3      C       1.2034650000     1.1106260000     0.7964100000
    4      H      -0.1391350000    -0.0159740000     2.1558100000
    5      C       1.3725650000     1.2524260000    -0.5927900000
    6      S       0.2036650000     0.2717260000    -1.4670900000
    7      C       2.0367650000     1.8098260000     1.8343100000
    8      H       1.7106650000     1.5362260000     2.8564100000
    9      H       1.9643650000     2.9140260000     1.7459100000
   10      H       3.1115650000     1.5467260000     1.7459100000
   11      C      -0.5182350000    -1.7746740000     0.0197100000
   12      H      -0.7056350000    -1.7743740000    -1.0438900000
   13      H       0.2885650000    -2.4784740000    -0.1224900000
   14      H      -1.4509350000    -2.2935740000     0.1842100000
   15      H       2.0996650000     1.8626260000    -1.1418900000
 ----------------------------------------------------------------

   10    -629.3668647115      8.96e-07  Convergence criterion met
 Total energy in the final basis set =     -629.3668647115
        RIMP2         total energy =      -630.5547970605 a.u.

                    Orbital Energies (a.u.)
 --------------------------------------------------------------

 Alpha MOs
 -- Occupied --
-91.9764 -11.2770 -11.2492 -11.2479 -11.2458 -11.2281 -11.2081  -8.9772
 -6.6580  -6.6572  -6.6568  -1.1694  -1.0556  -0.9948  -0.9447  -0.8795
 -0.7532  -0.7253  -0.6444  -0.5879  -0.5793  -0.5706  -0.5507  -0.5467
 -0.5180  -0.4670  -0.4547  -0.4398  -0.3331  -0.3061

          Ground-State Mulliken Net Atomic Charges

     Atom                 Charge (a.u.)
  ----------------------------------------
      1 C                    -0.076432
      2 C                    -0.160253
      3 C                     0.005950
      4 H                     0.181712
      5 C                    -0.204629
      6 S                     0.006395
      7 C                    -0.269358
      8 H                     0.102078
      9 H                     0.106641
     10 H                     0.104375
     11 C                    -0.357059
     12 H                     0.109137
     13 H                     0.139499
     14 H                     0.114267
     15 H                     0.197676
  ----------------------------------------
  Sum of atomic charges =     0.000000

                    Cartesian Multipole Moments
 -----------------------------------------------------------------
    Charge (ESU x 10^10)
                -0.0000
    Dipole Moment (Debye)
         X       1.8537      Y       0.4066      Z       1.1182
       Tot       2.2028
    Quadrupole Moments (Debye-Ang)
        XX     -49.0246     XY       4.6707     YY     -48.4050
        XZ      -0.0773     YZ       1.0180     ZZ     -48.1824

 Total job time:  159.95s(wall), 158.49s(cpu)
        *  Thank you very much for using Q-Chem.  Have a nice day.  *
