 Q-Chem 5.4, Q-Chem, Inc., Pleasanton, CA (2021)
 Q-Chem 5.4.0 for Intel X86 EM64T Linux

User input:
--------------------------------------------------------------
$molecule
0 1
C	-0.519919	-0.333972	0.010154
C	0.141681	0.221128	1.109554
C	1.201781	1.110628	0.786854
H	-0.140819	-0.015972	2.146254
C	1.370881	1.252428	-0.602346
S	0.201981	0.271728	-1.476646
C	2.035081	1.809828	1.824754
H	1.708981	1.536228	2.846854
H	1.962681	2.914028	1.736354
H	3.109881	1.546728	1.736354
C	-0.519919	-1.774672	0.010154
H	-0.332519	-1.774872	1.073754
H	0.286881	-2.478472	-0.132046
H	-1.452619	-2.293572	0.174654
H	2.097981	1.862628	-1.151446
$end

$rem
JOBTYPE		SP
EXCHANGE	HF
CORRELATION	pRIMP2
BASIS		cc-pvtz
METHOD		rimp2
AUX_BASIS	rimp2-cc-pvtz
SOLVENT_METHOD	PCM
PURECART	11111
SYMMETRY	false
MEM_TOTAL	110000
SCF_CONVERGENCE = 6
THRESH=10
$end

$solvent
dielectric 4.90
$end
--------------------------------------------------------------

             Standard Nuclear Orientation (Angstroms)
    I     Atom           X                Y                Z
 ----------------------------------------------------------------
    1      C      -0.5199190000    -0.3339720000     0.0101540000
    2      C       0.1416810000     0.2211280000     1.1095540000
    3      C       1.2017810000     1.1106280000     0.7868540000
    4      H      -0.1408190000    -0.0159720000     2.1462540000
    5      C       1.3708810000     1.2524280000    -0.6023460000
    6      S       0.2019810000     0.2717280000    -1.4766460000
    7      C       2.0350810000     1.8098280000     1.8247540000
    8      H       1.7089810000     1.5362280000     2.8468540000
    9      H       1.9626810000     2.9140280000     1.7363540000
   10      H       3.1098810000     1.5467280000     1.7363540000
   11      C      -0.5199190000    -1.7746720000     0.0101540000
   12      H      -0.3325190000    -1.7748720000     1.0737540000
   13      H       0.2868810000    -2.4784720000    -0.1320460000
   14      H      -1.4526190000    -2.2935720000     0.1746540000
   15      H       2.0979810000     1.8626280000    -1.1514460000
 ----------------------------------------------------------------

   10    -629.3666910463      8.96e-07  Convergence criterion met
 Total energy in the final basis set =     -629.3666910463
        RIMP2         total energy =      -630.5558548020 a.u.

                    Orbital Energies (a.u.)
 --------------------------------------------------------------

 Alpha MOs
 -- Occupied --
-91.9742 -11.2748 -11.2536 -11.2485 -11.2472 -11.2288 -11.2071  -8.9747
 -6.6556  -6.6548  -6.6545  -1.1702  -1.0550  -1.0010  -0.9346  -0.8832
 -0.7458  -0.7320  -0.6445  -0.5880  -0.5828  -0.5713  -0.5536  -0.5425
 -0.5185  -0.4702  -0.4597  -0.4320  -0.3319  -0.3044

          Ground-State Mulliken Net Atomic Charges

     Atom                 Charge (a.u.)
  ----------------------------------------
      1 C                    -0.062816
      2 C                    -0.166904
      3 C                    -0.000672
      4 H                     0.178362
      5 C                    -0.205136
      6 S                     0.007593
      7 C                    -0.268670
      8 H                     0.101500
      9 H                     0.106827
     10 H                     0.105138
     11 C                    -0.358864
     12 H                     0.115565
     13 H                     0.146950
     14 H                     0.105545
     15 H                     0.195583
  ----------------------------------------
  Sum of atomic charges =     0.000000

                    Cartesian Multipole Moments
 -----------------------------------------------------------------
    Charge (ESU x 10^10)
                -0.0000
    Dipole Moment (Debye)
         X       2.0052      Y       0.2864      Z       2.2564
       Tot       3.0322
    Quadrupole Moments (Debye-Ang)
        XX     -49.2287     XY       4.0718     YY     -48.4996
        XZ      -0.5313     YZ      -0.9949     ZZ     -48.2792

 Total job time:  160.58s(wall), 159.08s(cpu)
        *  Thank you very much for using Q-Chem.  Have a nice day.  *
