 Q-Chem 5.4, Q-Chem, Inc., Pleasanton, CA (2021)
 Q-Chem 5.4.0 for Intel X86 EM64T Linux

User input:
--------------------------------------------------------------
$molecule
0 1
C	-0.282017	-0.512744	0.016441
C	0.082983	0.269956	1.115841
C	0.667883	1.524156	0.793141
H	-0.072917	-0.064344	2.152541
C	0.761183	1.724156	-0.596059
S	0.116283	0.341356	-1.470359
C	1.127583	2.509956	1.831041
H	0.947683	2.124256	2.853141
H	0.595283	3.480156	1.742641
H	2.212883	2.725856	1.742641
C	-0.282017	-1.953444	0.016441
H	-1.345617	-1.953644	-0.171259
H	-0.424317	-2.657244	0.823141
H	-0.117517	-2.472344	-0.916259
H	1.162283	2.584456	-1.145159
$end

$rem
JOBTYPE		SP
EXCHANGE	HF
CORRELATION	pRIMP2
BASIS		cc-pvtz
METHOD		rimp2
AUX_BASIS	rimp2-cc-pvtz
SOLVENT_METHOD	PCM
PURECART	11111
SYMMETRY	false
MEM_TOTAL	110000
SCF_CONVERGENCE = 6
THRESH=10
$end

$solvent
dielectric 4.90
$end
--------------------------------------------------------------

             Standard Nuclear Orientation (Angstroms)
    I     Atom           X                Y                Z
 ----------------------------------------------------------------
    1      C      -0.2820170000    -0.5127440000     0.0164410000
    2      C       0.0829830000     0.2699560000     1.1158410000
    3      C       0.6678830000     1.5241560000     0.7931410000
    4      H      -0.0729170000    -0.0643440000     2.1525410000
    5      C       0.7611830000     1.7241560000    -0.5960590000
    6      S       0.1162830000     0.3413560000    -1.4703590000
    7      C       1.1275830000     2.5099560000     1.8310410000
    8      H       0.9476830000     2.1242560000     2.8531410000
    9      H       0.5952830000     3.4801560000     1.7426410000
   10      H       2.2128830000     2.7258560000     1.7426410000
   11      C      -0.2820170000    -1.9534440000     0.0164410000
   12      H      -1.3456170000    -1.9536440000    -0.1712590000
   13      H      -0.4243170000    -2.6572440000     0.8231410000
   14      H      -0.1175170000    -2.4723440000    -0.9162590000
   15      H       1.1622830000     2.5844560000    -1.1451590000
 ----------------------------------------------------------------

   10    -629.4060753446      5.97e-07  Convergence criterion met
 Total energy in the final basis set =     -629.4060753446
        RIMP2         total energy =      -630.5855789324 a.u.

                    Orbital Energies (a.u.)
 --------------------------------------------------------------

 Alpha MOs
 -- Occupied --
-91.9779 -11.2780 -11.2537 -11.2469 -11.2266 -11.2265 -11.2171  -8.9778
 -6.6588  -6.6582  -6.6576  -1.1611  -1.0551  -0.9962  -0.9430  -0.8822
 -0.7449  -0.7195  -0.6472  -0.5859  -0.5732  -0.5686  -0.5534  -0.5457
 -0.5103  -0.4930  -0.4574  -0.4555  -0.3379  -0.2873

          Ground-State Mulliken Net Atomic Charges

     Atom                 Charge (a.u.)
  ----------------------------------------
      1 C                     0.025035
      2 C                    -0.277102
      3 C                     0.046960
      4 H                     0.178613
      5 C                    -0.269370
      6 S                     0.001765
      7 C                    -0.271538
      8 H                     0.101410
      9 H                     0.107045
     10 H                     0.106516
     11 C                    -0.378424
     12 H                     0.133415
     13 H                     0.161262
     14 H                     0.140564
     15 H                     0.193850
  ----------------------------------------
  Sum of atomic charges =     0.000000

                    Cartesian Multipole Moments
 -----------------------------------------------------------------
    Charge (ESU x 10^10)
                -0.0000
    Dipole Moment (Debye)
         X      -0.1315      Y      -0.4728      Z       1.3274
       Tot       1.4152
    Quadrupole Moments (Debye-Ang)
        XX     -52.5917     XY       4.8799     YY     -43.6783
        XZ      -0.0422     YZ       0.3314     ZZ     -48.4127

 Total job time:  156.69s(wall), 154.94s(cpu)
        *  Thank you very much for using Q-Chem.  Have a nice day.  *
