 Q-Chem 5.4, Q-Chem, Inc., Pleasanton, CA (2021)
 Q-Chem 5.4.0 for Intel X86 EM64T Linux

User input:
--------------------------------------------------------------
$molecule
0 1
C	-0.283771	-0.512744	0.011118
C	0.081229	0.269956	1.110518
C	0.666129	1.524156	0.787818
H	-0.074671	-0.064344	2.147218
C	0.759429	1.724156	-0.601382
S	0.114529	0.341356	-1.475682
C	1.125829	2.509956	1.825718
H	0.945929	2.124256	2.847818
H	0.593529	3.480156	1.737318
H	2.211129	2.725856	1.737318
C	-0.283771	-1.953444	0.011118
H	-0.823871	-1.953644	0.946318
H	0.425629	-2.657244	0.420718
H	-1.103971	-2.472344	-0.462482
H	1.160529	2.584456	-1.150482
$end

$rem
JOBTYPE		SP
EXCHANGE	HF
CORRELATION	pRIMP2
BASIS		cc-pvtz
METHOD		rimp2
AUX_BASIS	rimp2-cc-pvtz
SOLVENT_METHOD	PCM
PURECART	11111
SYMMETRY	false
MEM_TOTAL	110000
SCF_CONVERGENCE = 6
THRESH=10
$end

$solvent
dielectric 4.90
$end
--------------------------------------------------------------

             Standard Nuclear Orientation (Angstroms)
    I     Atom           X                Y                Z
 ----------------------------------------------------------------
    1      C      -0.2837710000    -0.5127440000     0.0111180000
    2      C       0.0812290000     0.2699560000     1.1105180000
    3      C       0.6661290000     1.5241560000     0.7878180000
    4      H      -0.0746710000    -0.0643440000     2.1472180000
    5      C       0.7594290000     1.7241560000    -0.6013820000
    6      S       0.1145290000     0.3413560000    -1.4756820000
    7      C       1.1258290000     2.5099560000     1.8257180000
    8      H       0.9459290000     2.1242560000     2.8478180000
    9      H       0.5935290000     3.4801560000     1.7373180000
   10      H       2.2111290000     2.7258560000     1.7373180000
   11      C      -0.2837710000    -1.9534440000     0.0111180000
   12      H      -0.8238710000    -1.9536440000     0.9463180000
   13      H       0.4256290000    -2.6572440000     0.4207180000
   14      H      -1.1039710000    -2.4723440000    -0.4624820000
   15      H       1.1605290000     2.5844560000    -1.1504820000
 ----------------------------------------------------------------

   10    -629.4117004815      5.19e-07  Convergence criterion met
 Total energy in the final basis set =     -629.4117004815
        RIMP2         total energy =      -630.5925187937 a.u.

                    Orbital Energies (a.u.)
 --------------------------------------------------------------

 Alpha MOs
 -- Occupied --
-91.9742 -11.2721 -11.2606 -11.2476 -11.2362 -11.2276 -11.2148  -8.9745
 -6.6554  -6.6548  -6.6543  -1.1622  -1.0537  -0.9990  -0.9396  -0.8843
 -0.7431  -0.7244  -0.6482  -0.5875  -0.5781  -0.5663  -0.5586  -0.5424
 -0.5129  -0.4851  -0.4645  -0.4372  -0.3378  -0.3006

          Ground-State Mulliken Net Atomic Charges

     Atom                 Charge (a.u.)
  ----------------------------------------
      1 C                     0.022766
      2 C                    -0.264015
      3 C                     0.035633
      4 H                     0.178688
      5 C                    -0.245608
      6 S                    -0.003372
      7 C                    -0.271554
      8 H                     0.101349
      9 H                     0.106847
     10 H                     0.106931
     11 C                    -0.363057
     12 H                     0.119905
     13 H                     0.150948
     14 H                     0.131221
     15 H                     0.193316
  ----------------------------------------
  Sum of atomic charges =     0.000000

                    Cartesian Multipole Moments
 -----------------------------------------------------------------
    Charge (ESU x 10^10)
                -0.0000
    Dipole Moment (Debye)
         X       0.3744      Y       0.0019      Z       2.1056
       Tot       2.1386
    Quadrupole Moments (Debye-Ang)
        XX     -52.2073     XY       4.0652     YY     -43.9547
        XZ       0.1965     YZ      -1.0121     ZZ     -48.7414

 Total job time:  156.58s(wall), 154.77s(cpu)
        *  Thank you very much for using Q-Chem.  Have a nice day.  *
