 Q-Chem 5.4, Q-Chem, Inc., Pleasanton, CA (2021)
 Q-Chem 5.4.0 for Intel X86 EM64T Linux

User input:
--------------------------------------------------------------
$molecule
0 1
C	-0.179660	-0.553191	0.012353
C	0.043840	0.281009	1.111753
C	0.402040	1.617709	0.789053
H	-0.051560	-0.075291	2.148453
C	0.459240	1.830809	-0.600147
S	0.064240	0.357109	-1.474447
C	0.683640	2.668409	1.826953
H	0.573440	2.257309	2.849053
H	-0.008960	3.531409	1.738553
H	1.714940	3.069409	1.738553
C	-0.179660	-1.993891	0.012353
H	0.647640	-1.993591	0.706653
H	-0.706260	-2.697691	0.639853
H	0.429140	-2.512791	-0.713247
H	0.704940	2.747709	-1.149247
$end

$rem
JOBTYPE		SP
EXCHANGE	HF
CORRELATION	pRIMP2
BASIS		cc-pvtz
METHOD		rimp2
AUX_BASIS	rimp2-cc-pvtz
SOLVENT_METHOD	PCM
PURECART	11111
SYMMETRY	false
MEM_TOTAL	110000
SCF_CONVERGENCE = 6
THRESH=10
$end

$solvent
dielectric 4.90
$end
--------------------------------------------------------------

             Standard Nuclear Orientation (Angstroms)
    I     Atom           X                Y                Z
 ----------------------------------------------------------------
    1      C      -0.1796600000    -0.5531910000     0.0123530000
    2      C       0.0438400000     0.2810090000     1.1117530000
    3      C       0.4020400000     1.6177090000     0.7890530000
    4      H      -0.0515600000    -0.0752910000     2.1484530000
    5      C       0.4592400000     1.8308090000    -0.6001470000
    6      S       0.0642400000     0.3571090000    -1.4744470000
    7      C       0.6836400000     2.6684090000     1.8269530000
    8      H       0.5734400000     2.2573090000     2.8490530000
    9      H      -0.0089600000     3.5314090000     1.7385530000
   10      H       1.7149400000     3.0694090000     1.7385530000
   11      C      -0.1796600000    -1.9938910000     0.0123530000
   12      H       0.6476400000    -1.9935910000     0.7066530000
   13      H      -0.7062600000    -2.6976910000     0.6398530000
   14      H       0.4291400000    -2.5127910000    -0.7132470000
   15      H       0.7049400000     2.7477090000    -1.1492470000
 ----------------------------------------------------------------

   10    -629.4189173616      5.88e-07  Convergence criterion met
 Total energy in the final basis set =     -629.4189173616
        RIMP2         total energy =      -630.5966637414 a.u.

                    Orbital Energies (a.u.)
 --------------------------------------------------------------

 Alpha MOs
 -- Occupied --
-91.9786 -11.2819 -11.2517 -11.2473 -11.2269 -11.2262 -11.2185  -8.9783
 -6.6593  -6.6587  -6.6582  -1.1613  -1.0552  -0.9984  -0.9398  -0.8831
 -0.7427  -0.7213  -0.6490  -0.5894  -0.5740  -0.5676  -0.5584  -0.5437
 -0.5084  -0.4869  -0.4674  -0.4516  -0.3368  -0.2930

          Ground-State Mulliken Net Atomic Charges

     Atom                 Charge (a.u.)
  ----------------------------------------
      1 C                     0.054589
      2 C                    -0.277439
      3 C                     0.038256
      4 H                     0.175073
      5 C                    -0.269211
      6 S                     0.000439
      7 C                    -0.273172
      8 H                     0.101248
      9 H                     0.107340
     10 H                     0.106841
     11 C                    -0.388906
     12 H                     0.142828
     13 H                     0.153025
     14 H                     0.136503
     15 H                     0.192584
  ----------------------------------------
  Sum of atomic charges =     0.000000

                    Cartesian Multipole Moments
 -----------------------------------------------------------------
    Charge (ESU x 10^10)
                -0.0000
    Dipole Moment (Debye)
         X       0.8716      Y      -0.4764      Z       1.8617
       Tot       2.1101
    Quadrupole Moments (Debye-Ang)
        XX     -53.7628     XY       1.0735     YY     -42.7726
        XZ      -0.2434     YZ      -0.7341     ZZ     -48.6014

 Total job time:  156.48s(wall), 155.29s(cpu)
        *  Thank you very much for using Q-Chem.  Have a nice day.  *
