 Q-Chem 5.4, Q-Chem, Inc., Pleasanton, CA (2021)
 Q-Chem 5.4.0 for Intel X86 EM64T Linux

User input:
--------------------------------------------------------------
$molecule
0 1
C	-0.178253	-0.553191	0.019118
C	0.045247	0.281009	1.118518
C	0.403447	1.617709	0.795818
H	-0.050153	-0.075291	2.155218
C	0.460647	1.830809	-0.593382
S	0.065647	0.357109	-1.467682
C	0.685047	2.668409	1.833718
H	0.574847	2.257309	2.855818
H	-0.007553	3.531409	1.745318
H	1.716347	3.069409	1.745318
C	-0.178253	-1.993891	0.019118
H	0.516047	-1.993591	-0.808182
H	0.449247	-2.697691	0.545718
H	-0.903853	-2.512791	-0.589682
H	0.706347	2.747709	-1.142482
$end

$rem
JOBTYPE		SP
EXCHANGE	HF
CORRELATION	pRIMP2
BASIS		cc-pvtz
METHOD		rimp2
AUX_BASIS	rimp2-cc-pvtz
SOLVENT_METHOD	PCM
PURECART	11111
SYMMETRY	false
MEM_TOTAL	110000
SCF_CONVERGENCE = 6
THRESH=10
$end

$solvent
dielectric 4.90
$end
--------------------------------------------------------------

             Standard Nuclear Orientation (Angstroms)
    I     Atom           X                Y                Z
 ----------------------------------------------------------------
    1      C      -0.1782530000    -0.5531910000     0.0191180000
    2      C       0.0452470000     0.2810090000     1.1185180000
    3      C       0.4034470000     1.6177090000     0.7958180000
    4      H      -0.0501530000    -0.0752910000     2.1552180000
    5      C       0.4606470000     1.8308090000    -0.5933820000
    6      S       0.0656470000     0.3571090000    -1.4676820000
    7      C       0.6850470000     2.6684090000     1.8337180000
    8      H       0.5748470000     2.2573090000     2.8558180000
    9      H      -0.0075530000     3.5314090000     1.7453180000
   10      H       1.7163470000     3.0694090000     1.7453180000
   11      C      -0.1782530000    -1.9938910000     0.0191180000
   12      H       0.5160470000    -1.9935910000    -0.8081820000
   13      H       0.4492470000    -2.6976910000     0.5457180000
   14      H      -0.9038530000    -2.5127910000    -0.5896820000
   15      H       0.7063470000     2.7477090000    -1.1424820000
 ----------------------------------------------------------------

   10    -629.4176113802      6.41e-07  Convergence criterion met
 Total energy in the final basis set =     -629.4176113802
        RIMP2         total energy =      -630.5948803131 a.u.

                    Orbital Energies (a.u.)
 --------------------------------------------------------------

 Alpha MOs
 -- Occupied --
-91.9779 -11.2781 -11.2558 -11.2468 -11.2282 -11.2267 -11.2174  -8.9781
 -6.6591  -6.6585  -6.6579  -1.1616  -1.0558  -0.9952  -0.9452  -0.8813
 -0.7470  -0.7187  -0.6487  -0.5891  -0.5767  -0.5649  -0.5532  -0.5476
 -0.5093  -0.4881  -0.4644  -0.4497  -0.3394  -0.2963

          Ground-State Mulliken Net Atomic Charges

     Atom                 Charge (a.u.)
  ----------------------------------------
      1 C                     0.055364
      2 C                    -0.299202
      3 C                     0.053210
      4 H                     0.180053
      5 C                    -0.262770
      6 S                    -0.003958
      7 C                    -0.272363
      8 H                     0.101599
      9 H                     0.107369
     10 H                     0.106942
     11 C                    -0.373271
     12 H                     0.126790
     13 H                     0.156393
     14 H                     0.129647
     15 H                     0.194197
  ----------------------------------------
  Sum of atomic charges =     0.000000

                    Cartesian Multipole Moments
 -----------------------------------------------------------------
    Charge (ESU x 10^10)
                -0.0000
    Dipole Moment (Debye)
         X       0.8030      Y      -0.2395      Z       0.9615
       Tot       1.2754
    Quadrupole Moments (Debye-Ang)
        XX     -53.5870     XY       1.1758     YY     -42.6775
        XZ       0.4122     YZ       1.2150     ZZ     -48.7184

 Total job time:  155.78s(wall), 154.55s(cpu)
        *  Thank you very much for using Q-Chem.  Have a nice day.  *
