 Q-Chem 5.4, Q-Chem, Inc., Pleasanton, CA (2021)
 Q-Chem 5.4.0 for Intel X86 EM64T Linux

User input:
--------------------------------------------------------------
$molecule
0 1
C	-0.113134	-0.566010	0.013624
C	0.036866	0.284490	1.113024
C	0.277166	1.647390	0.790324
H	-0.027234	-0.078710	2.149724
C	0.315566	1.864690	-0.598876
S	0.050566	0.362090	-1.473176
C	0.466066	2.718590	1.828224
H	0.392166	2.299390	2.850324
H	-0.299134	3.517890	1.739824
H	1.458566	3.207890	1.739824
C	-0.113134	-2.006710	0.013624
H	-1.176734	-2.006410	0.201024
H	-0.255334	-2.710510	-0.793176
H	0.051366	-2.525610	0.946324
H	0.480366	2.799390	-1.147976
$end

$rem
JOBTYPE		SP
EXCHANGE	HF
CORRELATION	pRIMP2
BASIS		cc-pvtz
METHOD		rimp2
AUX_BASIS	rimp2-cc-pvtz
SOLVENT_METHOD	PCM
PURECART	11111
SYMMETRY	false
MEM_TOTAL	110000
SCF_CONVERGENCE = 6
THRESH=10
$end

$solvent
dielectric 4.90
$end
--------------------------------------------------------------

   10    -629.4210987136      6.78e-07  Convergence criterion met
 Total energy in the final basis set =     -629.4210987136
        RIMP2         total energy =      -630.5974885349 a.u.
 Total job time:  156.00s(wall), 155.06s(cpu)
        *  Thank you very much for using Q-Chem.  Have a nice day.  *
 Q-Chem 5.4, Q-Chem, Inc., Pleasanton, CA (2021)
 Q-Chem 5.4.0 for Intel X86 EM64T Linux

User input:
--------------------------------------------------------------
$molecule
0 1
C	-0.113134	-0.566010	0.013624
C	0.036866	0.284490	1.113024
C	0.277166	1.647390	0.790324
H	-0.027234	-0.078710	2.149724
C	0.315566	1.864690	-0.598876
S	0.050566	0.362090	-1.473176
C	0.466066	2.718590	1.828224
H	0.392166	2.299390	2.850324
H	-0.299134	3.517890	1.739824
H	1.458566	3.207890	1.739824
C	-0.113134	-2.006710	0.013624
H	-1.176734	-2.006410	0.201024
H	-0.255334	-2.710510	-0.793176
H	0.051366	-2.525610	0.946324
H	0.480366	2.799390	-1.147976
$end

$rem
JOBTYPE		SP
EXCHANGE	HF
CORRELATION	pRIMP2
BASIS		cc-pvtz
METHOD		rimp2
AUX_BASIS	rimp2-cc-pvtz
SOLVENT_METHOD	PCM
PURECART	11111
SYMMETRY	false
MEM_TOTAL	110000
SCF_CONVERGENCE = 6
THRESH=10
$end

$solvent
dielectric 4.90
$end
--------------------------------------------------------------

             Standard Nuclear Orientation (Angstroms)
    I     Atom           X                Y                Z
 ----------------------------------------------------------------
    1      C      -0.1131340000    -0.5660100000     0.0136240000
    2      C       0.0368660000     0.2844900000     1.1130240000
    3      C       0.2771660000     1.6473900000     0.7903240000
    4      H      -0.0272340000    -0.0787100000     2.1497240000
    5      C       0.3155660000     1.8646900000    -0.5988760000
    6      S       0.0505660000     0.3620900000    -1.4731760000
    7      C       0.4660660000     2.7185900000     1.8282240000
    8      H       0.3921660000     2.2993900000     2.8503240000
    9      H      -0.2991340000     3.5178900000     1.7398240000
   10      H       1.4585660000     3.2078900000     1.7398240000
   11      C      -0.1131340000    -2.0067100000     0.0136240000
   12      H      -1.1767340000    -2.0064100000     0.2010240000
   13      H      -0.2553340000    -2.7105100000    -0.7931760000
   14      H       0.0513660000    -2.5256100000     0.9463240000
   15      H       0.4803660000     2.7993900000    -1.1479760000
 ----------------------------------------------------------------

   10    -629.4210987136      6.78e-07  Convergence criterion met
 Total energy in the final basis set =     -629.4210987136
        RIMP2         total energy =      -630.5974885349 a.u.

                    Orbital Energies (a.u.)
 --------------------------------------------------------------

 Alpha MOs
 -- Occupied --
-91.9773 -11.2850 -11.2489 -11.2470 -11.2265 -11.2243 -11.2211  -8.9772
 -6.6582  -6.6576  -6.6570  -1.1600  -1.0558  -0.9977  -0.9414  -0.8831
 -0.7433  -0.7191  -0.6474  -0.5892  -0.5732  -0.5716  -0.5541  -0.5450
 -0.5087  -0.4936  -0.4627  -0.4551  -0.3379  -0.2881

          Ground-State Mulliken Net Atomic Charges

     Atom                 Charge (a.u.)
  ----------------------------------------
      1 C                     0.067840
      2 C                    -0.312368
      3 C                     0.051853
      4 H                     0.175511
      5 C                    -0.279465
      6 S                     0.000818
      7 C                    -0.274125
      8 H                     0.101214
      9 H                     0.107317
     10 H                     0.107349
     11 C                    -0.384869
     12 H                     0.141310
     13 H                     0.163405
     14 H                     0.142310
     15 H                     0.191901
  ----------------------------------------
  Sum of atomic charges =     0.000000

                    Cartesian Multipole Moments
 -----------------------------------------------------------------
    Charge (ESU x 10^10)
                -0.0000
    Dipole Moment (Debye)
         X      -0.5476      Y      -0.7353      Z       1.5445
       Tot       1.7961
    Quadrupole Moments (Debye-Ang)
        XX     -53.9758     XY       3.0981     YY     -42.0512
        XZ       0.1411     YZ       0.2421     ZZ     -48.5778

 Total job time:  157.09s(wall), 155.79s(cpu)
        *  Thank you very much for using Q-Chem.  Have a nice day.  *
