 Q-Chem 5.4, Q-Chem, Inc., Pleasanton, CA (2021)
 Q-Chem 5.4.0 for Intel X86 EM64T Linux

User input:
--------------------------------------------------------------
$molecule
0 1
C	0.001390	-0.576312	0.019710
C	0.001390	0.287288	1.119110
C	0.001490	1.671188	0.796410
H	0.001390	-0.081512	2.155810
C	0.001490	1.891888	-0.592790
S	0.001390	0.366088	-1.467090
C	0.001490	2.758988	1.834310
H	0.001490	2.333288	2.856410
H	-0.890910	3.413288	1.745910
H	0.893890	3.413188	1.745910
C	0.001390	-2.017012	0.019710
H	-0.186010	-2.016712	-1.043890
H	0.808190	-2.720812	-0.122490
H	-0.931310	-2.535912	0.184210
H	0.001490	2.841088	-1.141890
$end

$rem
JOBTYPE		SP
EXCHANGE	HF
CORRELATION	pRIMP2
BASIS		cc-pvtz
METHOD		rimp2
AUX_BASIS	rimp2-cc-pvtz
SOLVENT_METHOD	PCM
PURECART	11111
SYMMETRY	false
MEM_TOTAL	110000
SCF_CONVERGENCE = 6
THRESH=10
$end

$solvent
dielectric 4.90
$end
--------------------------------------------------------------

             Standard Nuclear Orientation (Angstroms)
    I     Atom           X                Y                Z
 ----------------------------------------------------------------
    1      C       0.0013900000    -0.5763120000     0.0197100000
    2      C       0.0013900000     0.2872880000     1.1191100000
    3      C       0.0014900000     1.6711880000     0.7964100000
    4      H       0.0013900000    -0.0815120000     2.1558100000
    5      C       0.0014900000     1.8918880000    -0.5927900000
    6      S       0.0013900000     0.3660880000    -1.4670900000
    7      C       0.0014900000     2.7589880000     1.8343100000
    8      H       0.0014900000     2.3332880000     2.8564100000
    9      H      -0.8909100000     3.4132880000     1.7459100000
   10      H       0.8938900000     3.4131880000     1.7459100000
   11      C       0.0013900000    -2.0170120000     0.0197100000
   12      H      -0.1860100000    -2.0167120000    -1.0438900000
   13      H       0.8081900000    -2.7208120000    -0.1224900000
   14      H      -0.9313100000    -2.5359120000     0.1842100000
   15      H       0.0014900000     2.8410880000    -1.1418900000
 ----------------------------------------------------------------

   10    -629.4207810002      5.46e-07  Convergence criterion met
 Total energy in the final basis set =     -629.4207810002
        RIMP2         total energy =      -630.5985744569 a.u.

                    Orbital Energies (a.u.)
 --------------------------------------------------------------

 Alpha MOs
 -- Occupied --
-91.9805 -11.2751 -11.2576 -11.2471 -11.2291 -11.2268 -11.2161  -8.9804
 -6.6613  -6.6608  -6.6602  -1.1609  -1.0551  -0.9954  -0.9463  -0.8817
 -0.7479  -0.7186  -0.6481  -0.5915  -0.5754  -0.5662  -0.5532  -0.5474
 -0.5089  -0.4861  -0.4650  -0.4443  -0.3384  -0.3037

          Ground-State Mulliken Net Atomic Charges

     Atom                 Charge (a.u.)
  ----------------------------------------
      1 C                     0.058523
      2 C                    -0.262950
      3 C                     0.039168
      4 H                     0.180149
      5 C                    -0.260025
      6 S                    -0.002422
      7 C                    -0.273312
      8 H                     0.101900
      9 H                     0.106837
     10 H                     0.106892
     11 C                    -0.371139
     12 H                     0.112460
     13 H                     0.140389
     14 H                     0.128240
     15 H                     0.195291
  ----------------------------------------
  Sum of atomic charges =     0.000000

                    Cartesian Multipole Moments
 -----------------------------------------------------------------
    Charge (ESU x 10^10)
                -0.0000
    Dipole Moment (Debye)
         X      -0.1293      Y       0.0236      Z       0.8571
       Tot       0.8671
    Quadrupole Moments (Debye-Ang)
        XX     -53.7107     XY       0.1619     YY     -42.1775
        XZ      -0.1244     YZ       1.5051     ZZ     -48.8297

 Total job time:  159.11s(wall), 156.95s(cpu)
        *  Thank you very much for using Q-Chem.  Have a nice day.  *
