 Q-Chem 5.4, Q-Chem, Inc., Pleasanton, CA (2021)
 Q-Chem 5.4.0 for Intel X86 EM64T Linux

User input:
--------------------------------------------------------------
$molecule
0 1
C	-0.592225	-0.237129	0.013912
C	0.155675	0.194671	1.113312
C	1.354175	0.886571	0.790612
H	-0.163725	0.010271	2.150012
C	1.545275	0.996871	-0.598588
S	0.223975	0.234071	-1.472888
C	2.296275	1.430471	1.828512
H	1.927575	1.217571	2.850612
H	2.416675	2.530371	1.740112
H	3.309075	0.984671	1.740112
C	-0.592225	-1.677829	0.013912
H	0.422575	-1.677529	0.383412
H	-0.872425	-2.381629	0.783712
H	-0.268325	-2.196729	-0.876088
H	2.367375	1.471471	-1.147688
$end

$rem
JOBTYPE		SP
EXCHANGE	HF
CORRELATION	pRIMP2
BASIS		cc-pvtz
METHOD		rimp2
AUX_BASIS	rimp2-cc-pvtz
SOLVENT_METHOD	PCM
PURECART	11111
SYMMETRY	false
MEM_TOTAL	110000
SCF_CONVERGENCE = 6
THRESH=10
$end

$solvent
dielectric 4.90
$end
--------------------------------------------------------------

             Standard Nuclear Orientation (Angstroms)
    I     Atom           X                Y                Z
 ----------------------------------------------------------------
    1      C      -0.5922250000    -0.2371290000     0.0139120000
    2      C       0.1556750000     0.1946710000     1.1133120000
    3      C       1.3541750000     0.8865710000     0.7906120000
    4      H      -0.1637250000     0.0102710000     2.1500120000
    5      C       1.5452750000     0.9968710000    -0.5985880000
    6      S       0.2239750000     0.2340710000    -1.4728880000
    7      C       2.2962750000     1.4304710000     1.8285120000
    8      H       1.9275750000     1.2175710000     2.8506120000
    9      H       2.4166750000     2.5303710000     1.7401120000
   10      H       3.3090750000     0.9846710000     1.7401120000
   11      C      -0.5922250000    -1.6778290000     0.0139120000
   12      H       0.4225750000    -1.6775290000     0.3834120000
   13      H      -0.8724250000    -2.3816290000     0.7837120000
   14      H      -0.2683250000    -2.1967290000    -0.8760880000
   15      H       2.3673750000     1.4714710000    -1.1476880000
 ----------------------------------------------------------------

   11    -629.3409004692      6.99e-07  Convergence criterion met
 Total energy in the final basis set =     -629.3409004692
        RIMP2         total energy =      -630.5347985908 a.u.

                    Orbital Energies (a.u.)
 --------------------------------------------------------------

 Alpha MOs
 -- Occupied --
-91.9792 -11.2792 -11.2542 -11.2506 -11.2439 -11.2292 -11.2107  -8.9797
 -6.6605  -6.6597  -6.6594  -1.1788  -1.0590  -1.0004  -0.9356  -0.8809
 -0.7513  -0.7310  -0.6466  -0.5935  -0.5797  -0.5685  -0.5540  -0.5463
 -0.5109  -0.4861  -0.4606  -0.4425  -0.3339  -0.2870

          Ground-State Mulliken Net Atomic Charges

     Atom                 Charge (a.u.)
  ----------------------------------------
      1 C                    -0.102954
      2 C                    -0.123237
      3 C                    -0.024257
      4 H                     0.182536
      5 C                    -0.206662
      6 S                     0.032421
      7 C                    -0.267340
      8 H                     0.102684
      9 H                     0.107449
     10 H                     0.103526
     11 C                    -0.366296
     12 H                     0.110372
     13 H                     0.127715
     14 H                     0.125416
     15 H                     0.198627
  ----------------------------------------
  Sum of atomic charges =     0.000000

                    Cartesian Multipole Moments
 -----------------------------------------------------------------
    Charge (ESU x 10^10)
                -0.0000
    Dipole Moment (Debye)
         X       2.7319      Y      -0.0833      Z       1.6910
       Tot       3.2140
    Quadrupole Moments (Debye-Ang)
        XX     -49.0183     XY       3.7211     YY     -50.0736
        XZ      -0.4814     YZ      -0.5517     ZZ     -47.3963

 Total job time:  181.10s(wall), 179.35s(cpu)
        *  Thank you very much for using Q-Chem.  Have a nice day.  *
