 Q-Chem 5.4, Q-Chem, Inc., Pleasanton, CA (2021)
 Q-Chem 5.4.0 for Intel X86 EM64T Linux

User input:
--------------------------------------------------------------
$molecule
0 1
C	-0.118931	-0.566007	0.010276
C	0.031069	0.284493	1.109676
C	0.271369	1.647393	0.786976
H	-0.033031	-0.078707	2.146376
C	0.309769	1.864693	-0.602224
S	0.044769	0.362093	-1.476524
C	0.460269	2.718593	1.824876
H	0.386369	2.299393	2.846976
H	-0.304931	3.517893	1.736476
H	1.452769	3.207893	1.736476
C	-0.118931	-2.006707	0.010276
H	0.250369	-2.006907	1.025176
H	0.650869	-2.710507	-0.269824
H	-1.008931	-2.525607	0.334176
H	0.474569	2.799393	-1.151324
$end

$rem
JOBTYPE		SP
EXCHANGE	HF
CORRELATION	pRIMP2
BASIS		cc-pvtz
METHOD		rimp2
AUX_BASIS	rimp2-cc-pvtz
SOLVENT_METHOD	PCM
PURECART	11111
SYMMETRY	false
MEM_TOTAL	110000
SCF_CONVERGENCE = 6
THRESH=10
$end

$solvent
dielectric 4.90
$end
--------------------------------------------------------------

             Standard Nuclear Orientation (Angstroms)
    I     Atom           X                Y                Z
 ----------------------------------------------------------------
    1      C      -0.1189310000    -0.5660070000     0.0102760000
    2      C       0.0310690000     0.2844930000     1.1096760000
    3      C       0.2713690000     1.6473930000     0.7869760000
    4      H      -0.0330310000    -0.0787070000     2.1463760000
    5      C       0.3097690000     1.8646930000    -0.6022240000
    6      S       0.0447690000     0.3620930000    -1.4765240000
    7      C       0.4602690000     2.7185930000     1.8248760000
    8      H       0.3863690000     2.2993930000     2.8469760000
    9      H      -0.3049310000     3.5178930000     1.7364760000
   10      H       1.4527690000     3.2078930000     1.7364760000
   11      C      -0.1189310000    -2.0067070000     0.0102760000
   12      H       0.2503690000    -2.0069070000     1.0251760000
   13      H       0.6508690000    -2.7105070000    -0.2698240000
   14      H      -1.0089310000    -2.5256070000     0.3341760000
   15      H       0.4745690000     2.7993930000    -1.1513240000
 ----------------------------------------------------------------

   10    -629.4216278862      5.09e-07  Convergence criterion met
 Total energy in the final basis set =     -629.4216278862
        RIMP2         total energy =      -630.5999881051 a.u.

                    Orbital Energies (a.u.)
 --------------------------------------------------------------

 Alpha MOs
 -- Occupied --
-91.9756 -11.2782 -11.2562 -11.2471 -11.2330 -11.2274 -11.2162  -8.9756
 -6.6565  -6.6560  -6.6555  -1.1612  -1.0541  -0.9996  -0.9393  -0.8843
 -0.7422  -0.7237  -0.6484  -0.5914  -0.5772  -0.5683  -0.5584  -0.5422
 -0.5107  -0.4833  -0.4680  -0.4402  -0.3372  -0.3017

          Ground-State Mulliken Net Atomic Charges

     Atom                 Charge (a.u.)
  ----------------------------------------
      1 C                     0.060862
      2 C                    -0.269092
      3 C                     0.031107
      4 H                     0.176361
      5 C                    -0.254161
      6 S                    -0.006155
      7 C                    -0.273562
      8 H                     0.101072
      9 H                     0.107211
     10 H                     0.107165
     11 C                    -0.378345
     12 H                     0.127021
     13 H                     0.150798
     14 H                     0.127016
     15 H                     0.192703
  ----------------------------------------
  Sum of atomic charges =     0.000000

                    Cartesian Multipole Moments
 -----------------------------------------------------------------
    Charge (ESU x 10^10)
                -0.0000
    Dipole Moment (Debye)
         X       0.4644      Y      -0.1508      Z       2.1149
       Tot       2.1706
    Quadrupole Moments (Debye-Ang)
        XX     -53.5765     XY       0.8536     YY     -42.4811
        XZ      -0.2205     YZ      -0.9715     ZZ     -48.8831

 Total job time:  157.71s(wall), 154.99s(cpu)
        *  Thank you very much for using Q-Chem.  Have a nice day.  *
