 Q-Chem 5.4, Q-Chem, Inc., Pleasanton, CA (2021)
 Q-Chem 5.4.0 for Intel X86 EM64T Linux

User input:
--------------------------------------------------------------
$molecule
0 1
C	-0.118088	-0.566007	0.010154
C	0.031912	0.284493	1.109554
C	0.272212	1.647393	0.786854
H	-0.032188	-0.078707	2.146254
C	0.310612	1.864693	-0.602346
S	0.045612	0.362093	-1.476646
C	0.461112	2.718593	1.824754
H	0.387212	2.299393	2.846854
H	-0.304088	3.517893	1.736354
H	1.453612	3.207893	1.736354
C	-0.118088	-2.006707	0.010154
H	0.069312	-2.006907	1.073754
H	0.688712	-2.710507	-0.132046
H	-1.050788	-2.525607	0.174654
H	0.475412	2.799393	-1.151446
$end

$rem
JOBTYPE		SP
EXCHANGE	HF
CORRELATION	pRIMP2
BASIS		cc-pvtz
METHOD		rimp2
AUX_BASIS	rimp2-cc-pvtz
SOLVENT_METHOD	PCM
PURECART	11111
SYMMETRY	false
MEM_TOTAL	110000
SCF_CONVERGENCE = 6
THRESH=10
$end

$solvent
dielectric 4.90
$end
--------------------------------------------------------------

             Standard Nuclear Orientation (Angstroms)
    I     Atom           X                Y                Z
 ----------------------------------------------------------------
    1      C      -0.1180880000    -0.5660070000     0.0101540000
    2      C       0.0319120000     0.2844930000     1.1095540000
    3      C       0.2722120000     1.6473930000     0.7868540000
    4      H      -0.0321880000    -0.0787070000     2.1462540000
    5      C       0.3106120000     1.8646930000    -0.6023460000
    6      S       0.0456120000     0.3620930000    -1.4766460000
    7      C       0.4611120000     2.7185930000     1.8247540000
    8      H       0.3872120000     2.2993930000     2.8468540000
    9      H      -0.3040880000     3.5178930000     1.7363540000
   10      H       1.4536120000     3.2078930000     1.7363540000
   11      C      -0.1180880000    -2.0067070000     0.0101540000
   12      H       0.0693120000    -2.0069070000     1.0737540000
   13      H       0.6887120000    -2.7105070000    -0.1320460000
   14      H      -1.0507880000    -2.5256070000     0.1746540000
   15      H       0.4754120000     2.7993930000    -1.1514460000
 ----------------------------------------------------------------

   10    -629.4221907206      4.96e-07  Convergence criterion met
 Total energy in the final basis set =     -629.4221907206
        RIMP2         total energy =      -630.6005997709 a.u.

                    Orbital Energies (a.u.)
 --------------------------------------------------------------

 Alpha MOs
 -- Occupied --
-91.9750 -11.2771 -11.2575 -11.2470 -11.2343 -11.2275 -11.2159  -8.9751
 -6.6561  -6.6555  -6.6550  -1.1613  -1.0539  -0.9997  -0.9394  -0.8844
 -0.7423  -0.7243  -0.6486  -0.5913  -0.5779  -0.5677  -0.5587  -0.5419
 -0.5109  -0.4832  -0.4681  -0.4378  -0.3376  -0.3036

          Ground-State Mulliken Net Atomic Charges

     Atom                 Charge (a.u.)
  ----------------------------------------
      1 C                     0.060454
      2 C                    -0.269881
      3 C                     0.031854
      4 H                     0.176718
      5 C                    -0.251021
      6 S                    -0.006943
      7 C                    -0.273434
      8 H                     0.101074
      9 H                     0.107153
     10 H                     0.107235
     11 C                    -0.371627
     12 H                     0.122573
     13 H                     0.146742
     14 H                     0.126032
     15 H                     0.193072
  ----------------------------------------
  Sum of atomic charges =     0.000000

                    Cartesian Multipole Moments
 -----------------------------------------------------------------
    Charge (ESU x 10^10)
                -0.0000
    Dipole Moment (Debye)
         X       0.3601      Y      -0.0693      Z       2.1467
       Tot       2.1778
    Quadrupole Moments (Debye-Ang)
        XX     -53.4896     XY       1.1203     YY     -42.4853
        XZ      -0.1378     YZ      -1.0543     ZZ     -48.9321

 Total job time:  157.15s(wall), 154.88s(cpu)
        *  Thank you very much for using Q-Chem.  Have a nice day.  *
