 Q-Chem 5.4, Q-Chem, Inc., Pleasanton, CA (2021)
 Q-Chem 5.4.0 for Intel X86 EM64T Linux

User input:
--------------------------------------------------------------
$molecule
0 1
C	-0.179489	-0.553191	0.017955
C	0.044011	0.281009	1.117355
C	0.402211	1.617709	0.794655
H	-0.051389	-0.075291	2.154055
C	0.459411	1.830809	-0.594545
S	0.064411	0.357109	-1.468845
C	0.683811	2.668409	1.832555
H	0.573611	2.257309	2.854655
H	-0.008789	3.531409	1.744155
H	1.715111	3.069409	1.744155
C	-0.179489	-1.993891	0.017955
H	0.755911	-1.993591	-0.521945
H	0.230011	-2.697691	0.727455
H	-0.653089	-2.512791	-0.802245
H	0.705111	2.747709	-1.143645
$end

$rem
JOBTYPE		SP
EXCHANGE	HF
CORRELATION	pRIMP2
BASIS		cc-pvtz
METHOD		rimp2
AUX_BASIS	rimp2-cc-pvtz
SOLVENT_METHOD	PCM
PURECART	11111
SYMMETRY	false
MEM_TOTAL	110000
SCF_CONVERGENCE = 6
THRESH=10
$end

$solvent
dielectric 4.90
$end
--------------------------------------------------------------

             Standard Nuclear Orientation (Angstroms)
    I     Atom           X                Y                Z
 ----------------------------------------------------------------
    1      C      -0.1794890000    -0.5531910000     0.0179550000
    2      C       0.0440110000     0.2810090000     1.1173550000
    3      C       0.4022110000     1.6177090000     0.7946550000
    4      H      -0.0513890000    -0.0752910000     2.1540550000
    5      C       0.4594110000     1.8308090000    -0.5945450000
    6      S       0.0644110000     0.3571090000    -1.4688450000
    7      C       0.6838110000     2.6684090000     1.8325550000
    8      H       0.5736110000     2.2573090000     2.8546550000
    9      H      -0.0087890000     3.5314090000     1.7441550000
   10      H       1.7151110000     3.0694090000     1.7441550000
   11      C      -0.1794890000    -1.9938910000     0.0179550000
   12      H       0.7559110000    -1.9935910000    -0.5219450000
   13      H       0.2300110000    -2.6976910000     0.7274550000
   14      H      -0.6530890000    -2.5127910000    -0.8022450000
   15      H       0.7051110000     2.7477090000    -1.1436450000
 ----------------------------------------------------------------

   10    -629.4203205355      7.03e-07  Convergence criterion met
 Total energy in the final basis set =     -629.4203205355
        RIMP2         total energy =      -630.5963520430 a.u.

                    Orbital Energies (a.u.)
 --------------------------------------------------------------

 Alpha MOs
 -- Occupied --
-91.9776 -11.2822 -11.2526 -11.2469 -11.2265 -11.2253 -11.2205  -8.9777
 -6.6587  -6.6582  -6.6575  -1.1615  -1.0564  -0.9958  -0.9440  -0.8816
 -0.7458  -0.7186  -0.6492  -0.5877  -0.5774  -0.5649  -0.5527  -0.5477
 -0.5080  -0.4923  -0.4651  -0.4541  -0.3397  -0.2914

          Ground-State Mulliken Net Atomic Charges

     Atom                 Charge (a.u.)
  ----------------------------------------
      1 C                     0.063250
      2 C                    -0.322170
      3 C                     0.060683
      4 H                     0.178697
      5 C                    -0.273026
      6 S                    -0.002913
      7 C                    -0.272239
      8 H                     0.101462
      9 H                     0.107453
     10 H                     0.107150
     11 C                    -0.373583
     12 H                     0.137136
     13 H                     0.161190
     14 H                     0.133537
     15 H                     0.193371
  ----------------------------------------
  Sum of atomic charges =     0.000000

                    Cartesian Multipole Moments
 -----------------------------------------------------------------
    Charge (ESU x 10^10)
                -0.0000
    Dipole Moment (Debye)
         X       0.9383      Y      -0.5196      Z       1.0986
       Tot       1.5354
    Quadrupole Moments (Debye-Ang)
        XX     -53.8844     XY       0.8909     YY     -42.4381
        XZ       0.3825     YZ       0.8700     ZZ     -48.6744

 Total job time:  155.95s(wall), 154.60s(cpu)
        *  Thank you very much for using Q-Chem.  Have a nice day.  *
