 Q-Chem 5.4, Q-Chem, Inc., Pleasanton, CA (2021)
 Q-Chem 5.4.0 for Intel X86 EM64T Linux

User input:
--------------------------------------------------------------
$molecule
0 1
C	-0.438240	-0.417597	0.010669
C	0.116860	0.243903	1.110069
C	1.006460	1.304103	0.787369
H	-0.120140	-0.038597	2.146769
C	1.148360	1.473103	-0.601831
S	0.167560	0.304303	-1.476131
C	1.705660	2.137303	1.825269
H	1.432060	1.811303	2.847369
H	1.442660	3.212103	1.736869
H	2.809860	2.064903	1.736869
C	-0.438240	-1.858297	0.010669
H	-0.068940	-1.857997	1.025569
H	-1.208040	-2.562097	0.290769
H	0.451760	-2.377197	-0.313231
H	1.758460	2.200203	-1.150931
$end

$rem
JOBTYPE		SP
EXCHANGE	HF
CORRELATION	pRIMP2
BASIS		cc-pvtz
METHOD		rimp2
AUX_BASIS	rimp2-cc-pvtz
SOLVENT_METHOD	PCM
PURECART	11111
SYMMETRY	false
MEM_TOTAL	110000
SCF_CONVERGENCE = 6
THRESH=10
$end

$solvent
dielectric 4.90
$end
--------------------------------------------------------------

             Standard Nuclear Orientation (Angstroms)
    I     Atom           X                Y                Z
 ----------------------------------------------------------------
    1      C      -0.4382400000    -0.4175970000     0.0106690000
    2      C       0.1168600000     0.2439030000     1.1100690000
    3      C       1.0064600000     1.3041030000     0.7873690000
    4      H      -0.1201400000    -0.0385970000     2.1467690000
    5      C       1.1483600000     1.4731030000    -0.6018310000
    6      S       0.1675600000     0.3043030000    -1.4761310000
    7      C       1.7056600000     2.1373030000     1.8252690000
    8      H       1.4320600000     1.8113030000     2.8473690000
    9      H       1.4426600000     3.2121030000     1.7368690000
   10      H       2.8098600000     2.0649030000     1.7368690000
   11      C      -0.4382400000    -1.8582970000     0.0106690000
   12      H      -0.0689400000    -1.8579970000     1.0255690000
   13      H      -1.2080400000    -2.5620970000     0.2907690000
   14      H       0.4517600000    -2.3771970000    -0.3132310000
   15      H       1.7584600000     2.2002030000    -1.1509310000
 ----------------------------------------------------------------

   10    -629.3882774479      5.74e-07  Convergence criterion met
 Total energy in the final basis set =     -629.3882774479
        RIMP2         total energy =      -630.5735890059 a.u.

                    Orbital Energies (a.u.)
 --------------------------------------------------------------

 Alpha MOs
 -- Occupied --
-91.9754 -11.2660 -11.2656 -11.2476 -11.2393 -11.2281 -11.2106  -8.9756
 -6.6565  -6.6559  -6.6554  -1.1668  -1.0547  -0.9997  -0.9362  -0.8830
 -0.7442  -0.7282  -0.6450  -0.5916  -0.5791  -0.5676  -0.5562  -0.5425
 -0.5139  -0.4707  -0.4688  -0.4396  -0.3337  -0.3010

          Ground-State Mulliken Net Atomic Charges

     Atom                 Charge (a.u.)
  ----------------------------------------
      1 C                    -0.008972
      2 C                    -0.220513
      3 C                     0.019314
      4 H                     0.176521
      5 C                    -0.231514
      6 S                     0.003168
      7 C                    -0.269642
      8 H                     0.101253
      9 H                     0.107126
     10 H                     0.105742
     11 C                    -0.370448
     12 H                     0.127698
     13 H                     0.131195
     14 H                     0.135320
     15 H                     0.193753
  ----------------------------------------
  Sum of atomic charges =     0.000000

                    Cartesian Multipole Moments
 -----------------------------------------------------------------
    Charge (ESU x 10^10)
                -0.0000
    Dipole Moment (Debye)
         X       1.5056      Y       0.0764      Z       2.1634
       Tot       2.6368
    Quadrupole Moments (Debye-Ang)
        XX     -50.7206     XY       3.9770     YY     -46.6416
        XZ      -0.4376     YZ      -1.0634     ZZ     -48.4614

 Total job time:  160.12s(wall), 158.26s(cpu)
        *  Thank you very much for using Q-Chem.  Have a nice day.  *
