 Q-Chem 5.4, Q-Chem, Inc., Pleasanton, CA (2021)
 Q-Chem 5.4.0 for Intel X86 EM64T Linux

User input:
--------------------------------------------------------------
$molecule
0 1
C	-0.431162	-0.417594	0.014756
C	0.123938	0.243906	1.114156
C	1.013538	1.304106	0.791456
H	-0.113062	-0.038594	2.150856
C	1.155438	1.473106	-0.597744
S	0.174638	0.304306	-1.472044
C	1.712738	2.137306	1.829356
H	1.439138	1.811306	2.851456
H	1.449738	3.212106	1.740956
H	2.816938	2.064906	1.740956
C	-0.431162	-1.858294	0.014756
H	-1.494762	-1.858494	0.202156
H	-0.288962	-2.562094	0.821556
H	-0.595662	-2.377194	-0.917944
H	1.765538	2.200206	-1.146844
$end

$rem
JOBTYPE		SP
EXCHANGE	HF
CORRELATION	pRIMP2
BASIS		cc-pvtz
METHOD		rimp2
AUX_BASIS	rimp2-cc-pvtz
SOLVENT_METHOD	PCM
PURECART	11111
SYMMETRY	false
MEM_TOTAL	110000
SCF_CONVERGENCE = 6
THRESH=10
$end

$solvent
dielectric 4.90
$end
--------------------------------------------------------------

             Standard Nuclear Orientation (Angstroms)
    I     Atom           X                Y                Z
 ----------------------------------------------------------------
    1      C      -0.4311620000    -0.4175940000     0.0147560000
    2      C       0.1239380000     0.2439060000     1.1141560000
    3      C       1.0135380000     1.3041060000     0.7914560000
    4      H      -0.1130620000    -0.0385940000     2.1508560000
    5      C       1.1554380000     1.4731060000    -0.5977440000
    6      S       0.1746380000     0.3043060000    -1.4720440000
    7      C       1.7127380000     2.1373060000     1.8293560000
    8      H       1.4391380000     1.8113060000     2.8514560000
    9      H       1.4497380000     3.2121060000     1.7409560000
   10      H       2.8169380000     2.0649060000     1.7409560000
   11      C      -0.4311620000    -1.8582940000     0.0147560000
   12      H      -1.4947620000    -1.8584940000     0.2021560000
   13      H      -0.2889620000    -2.5620940000     0.8215560000
   14      H      -0.5956620000    -2.3771940000    -0.9179440000
   15      H       1.7655380000     2.2002060000    -1.1468440000
 ----------------------------------------------------------------

   10    -629.3826462772      6.19e-07  Convergence criterion met
 Total energy in the final basis set =     -629.3826462772
        RIMP2         total energy =      -630.5681995905 a.u.

                    Orbital Energies (a.u.)
 --------------------------------------------------------------

 Alpha MOs
 -- Occupied --
-91.9747 -11.2669 -11.2615 -11.2476 -11.2348 -11.2271 -11.2119  -8.9751
 -6.6560  -6.6553  -6.6548  -1.1636  -1.0540  -0.9963  -0.9410  -0.8824
 -0.7455  -0.7229  -0.6454  -0.5841  -0.5754  -0.5656  -0.5556  -0.5436
 -0.5137  -0.4932  -0.4584  -0.4406  -0.3368  -0.2860

          Ground-State Mulliken Net Atomic Charges

     Atom                 Charge (a.u.)
  ----------------------------------------
      1 C                    -0.006401
      2 C                    -0.249257
      3 C                     0.037464
      4 H                     0.177462
      5 C                    -0.244748
      6 S                     0.006178
      7 C                    -0.269865
      8 H                     0.101417
      9 H                     0.107091
     10 H                     0.105829
     11 C                    -0.382675
     12 H                     0.130078
     13 H                     0.158805
     14 H                     0.135726
     15 H                     0.192898
  ----------------------------------------
  Sum of atomic charges =     0.000000

                    Cartesian Multipole Moments
 -----------------------------------------------------------------
    Charge (ESU x 10^10)
                -0.0000
    Dipole Moment (Debye)
         X       0.4614      Y      -0.2127      Z       1.6713
       Tot       1.7468
    Quadrupole Moments (Debye-Ang)
        XX     -50.5441     XY       5.7323     YY     -46.3115
        XZ       0.0920     YZ      -0.1920     ZZ     -48.1628

 Total job time:  156.56s(wall), 154.84s(cpu)
        *  Thank you very much for using Q-Chem.  Have a nice day.  *
