 Q-Chem 5.4, Q-Chem, Inc., Pleasanton, CA (2021)
 Q-Chem 5.4.0 for Intel X86 EM64T Linux

User input:
--------------------------------------------------------------
$molecule
0 1
C	-0.592226	-0.237127	0.016151
C	0.155674	0.194673	1.115551
C	1.354174	0.886573	0.792851
H	-0.163726	0.010273	2.152251
C	1.545274	0.996873	-0.596349
S	0.223974	0.234073	-1.470649
C	2.296274	1.430473	1.830751
H	1.927574	1.217573	2.852851
H	2.416674	2.530373	1.742351
H	3.309074	0.984673	1.742351
C	-0.592226	-1.677827	0.016151
H	0.422674	-1.678027	-0.353149
H	-0.872326	-2.381627	-0.753649
H	-0.268326	-2.196727	0.906151
H	2.367374	1.471473	-1.145449
$end

$rem
JOBTYPE		SP
EXCHANGE	HF
CORRELATION	pRIMP2
BASIS		cc-pvtz
METHOD		rimp2
AUX_BASIS	rimp2-cc-pvtz
SOLVENT_METHOD	PCM
PURECART	11111
SYMMETRY	false
MEM_TOTAL	110000
SCF_CONVERGENCE = 6
THRESH=10
$end

$solvent
dielectric 4.90
$end
--------------------------------------------------------------

             Standard Nuclear Orientation (Angstroms)
    I     Atom           X                Y                Z
 ----------------------------------------------------------------
    1      C      -0.5922260000    -0.2371270000     0.0161510000
    2      C       0.1556740000     0.1946730000     1.1155510000
    3      C       1.3541740000     0.8865730000     0.7928510000
    4      H      -0.1637260000     0.0102730000     2.1522510000
    5      C       1.5452740000     0.9968730000    -0.5963490000
    6      S       0.2239740000     0.2340730000    -1.4706490000
    7      C       2.2962740000     1.4304730000     1.8307510000
    8      H       1.9275740000     1.2175730000     2.8528510000
    9      H       2.4166740000     2.5303730000     1.7423510000
   10      H       3.3090740000     0.9846730000     1.7423510000
   11      C      -0.5922260000    -1.6778270000     0.0161510000
   12      H       0.4226740000    -1.6780270000    -0.3531490000
   13      H      -0.8723260000    -2.3816270000    -0.7536490000
   14      H      -0.2683260000    -2.1967270000     0.9061510000
   15      H       2.3673740000     1.4714730000    -1.1454490000
 ----------------------------------------------------------------

   10    -629.3479913560      8.54e-07  Convergence criterion met
 Total energy in the final basis set =     -629.3479913560
        RIMP2         total energy =      -630.5392469495 a.u.

                    Orbital Energies (a.u.)
 --------------------------------------------------------------

 Alpha MOs
 -- Occupied --
-91.9710 -11.2799 -11.2571 -11.2514 -11.2476 -11.2296 -11.2133  -8.9727
 -6.6535  -6.6527  -6.6524  -1.1792  -1.0603  -0.9979  -0.9393  -0.8795
 -0.7540  -0.7303  -0.6444  -0.5903  -0.5877  -0.5668  -0.5534  -0.5460
 -0.5107  -0.4954  -0.4615  -0.4298  -0.3399  -0.2896

          Ground-State Mulliken Net Atomic Charges

     Atom                 Charge (a.u.)
  ----------------------------------------
      1 C                    -0.064140
      2 C                    -0.167064
      3 C                    -0.004648
      4 H                     0.185271
      5 C                    -0.200024
      6 S                     0.000348
      7 C                    -0.267763
      8 H                     0.102601
      9 H                     0.107756
     10 H                     0.105558
     11 C                    -0.360045
     12 H                     0.113197
     13 H                     0.130529
     14 H                     0.121117
     15 H                     0.197306
  ----------------------------------------
  Sum of atomic charges =     0.000000

                    Cartesian Multipole Moments
 -----------------------------------------------------------------
    Charge (ESU x 10^10)
                -0.0000
    Dipole Moment (Debye)
         X       2.7486      Y      -0.1445      Z       1.6082
       Tot       3.1878
    Quadrupole Moments (Debye-Ang)
        XX     -48.7653     XY       3.7523     YY     -49.9120
        XZ       0.0546     YZ       0.5724     ZZ     -47.8546

 Total job time:  167.03s(wall), 165.35s(cpu)
        *  Thank you very much for using Q-Chem.  Have a nice day.  *
