 Q-Chem 5.4, Q-Chem, Inc., Pleasanton, CA (2021)
 Q-Chem 5.4.0 for Intel X86 EM64T Linux

User input:
--------------------------------------------------------------
$molecule
0 1
C	-0.588590	-0.237129	0.019787
C	0.159310	0.194671	1.119187
C	1.357810	0.886571	0.796487
H	-0.160090	0.010271	2.155887
C	1.548910	0.996871	-0.592713
S	0.227610	0.234071	-1.467013
C	2.299910	1.430471	1.834387
H	1.931210	1.217571	2.856487
H	2.420310	2.530371	1.745987
H	3.312710	0.984671	1.745987
C	-0.588590	-1.677829	0.019787
H	-0.219090	-1.677529	-0.995013
H	0.181210	-2.381629	0.299987
H	-1.478590	-2.196729	-0.304113
H	2.371010	1.471471	-1.141813
$end

$rem
JOBTYPE		SP
EXCHANGE	HF
CORRELATION	pRIMP2
BASIS		cc-pvtz
METHOD		rimp2
AUX_BASIS	rimp2-cc-pvtz
SOLVENT_METHOD	PCM
PURECART	11111
SYMMETRY	false
MEM_TOTAL	110000
SCF_CONVERGENCE = 6
THRESH=10
$end

$solvent
dielectric 4.90
$end
--------------------------------------------------------------

             Standard Nuclear Orientation (Angstroms)
    I     Atom           X                Y                Z
 ----------------------------------------------------------------
    1      C      -0.5885900000    -0.2371290000     0.0197870000
    2      C       0.1593100000     0.1946710000     1.1191870000
    3      C       1.3578100000     0.8865710000     0.7964870000
    4      H      -0.1600900000     0.0102710000     2.1558870000
    5      C       1.5489100000     0.9968710000    -0.5927130000
    6      S       0.2276100000     0.2340710000    -1.4670130000
    7      C       2.2999100000     1.4304710000     1.8343870000
    8      H       1.9312100000     1.2175710000     2.8564870000
    9      H       2.4203100000     2.5303710000     1.7459870000
   10      H       3.3127100000     0.9846710000     1.7459870000
   11      C      -0.5885900000    -1.6778290000     0.0197870000
   12      H      -0.2190900000    -1.6775290000    -0.9950130000
   13      H       0.1812100000    -2.3816290000     0.2999870000
   14      H      -1.4785900000    -2.1967290000    -0.3041130000
   15      H       2.3710100000     1.4714710000    -1.1418130000
 ----------------------------------------------------------------

   10    -629.3335167627      8.94e-07  Convergence criterion met
 Total energy in the final basis set =     -629.3335167627
        RIMP2         total energy =      -630.5251801282 a.u.

                    Orbital Energies (a.u.)
 --------------------------------------------------------------

 Alpha MOs
 -- Occupied --
-91.9708 -11.2841 -11.2559 -11.2475 -11.2425 -11.2288 -11.2025  -8.9728
 -6.6536  -6.6526  -6.6524  -1.1766  -1.0588  -0.9954  -0.9443  -0.8766
 -0.7575  -0.7289  -0.6452  -0.5874  -0.5830  -0.5677  -0.5527  -0.5466
 -0.5197  -0.4667  -0.4631  -0.4293  -0.3294  -0.3000

          Ground-State Mulliken Net Atomic Charges

     Atom                 Charge (a.u.)
  ----------------------------------------
      1 C                    -0.106569
      2 C                    -0.112013
      3 C                    -0.022838
      4 H                     0.185843
      5 C                    -0.180303
      6 S                     0.001346
      7 C                    -0.268386
      8 H                     0.102027
      9 H                     0.107130
     10 H                     0.103936
     11 C                    -0.379768
     12 H                     0.132849
     13 H                     0.136201
     14 H                     0.101894
     15 H                     0.198649
  ----------------------------------------
  Sum of atomic charges =     0.000000

                    Cartesian Multipole Moments
 -----------------------------------------------------------------
    Charge (ESU x 10^10)
                -0.0000
    Dipole Moment (Debye)
         X       2.7531      Y       0.2331      Z       1.1858
       Tot       3.0066
    Quadrupole Moments (Debye-Ang)
        XX     -48.2484     XY       3.5028     YY     -50.4466
        XZ       0.0588     YZ       1.2795     ZZ     -47.7447

 Total job time:  166.68s(wall), 164.08s(cpu)
        *  Thank you very much for using Q-Chem.  Have a nice day.  *
