 Q-Chem 5.4, Q-Chem, Inc., Pleasanton, CA (2021)
 Q-Chem 5.4.0 for Intel X86 EM64T Linux

User input:
--------------------------------------------------------------
$molecule
0 1
C	-0.062492	-0.573729	0.018590
C	0.012808	0.286571	1.117990
C	0.133408	1.665271	0.795290
H	-0.019292	-0.080829	2.154690
C	0.152708	1.885071	-0.593910
S	0.019708	0.365071	-1.468210
C	0.228308	2.748871	1.833190
H	0.191208	2.324771	2.855290
H	-0.603692	3.478371	1.744790
H	1.174308	3.322871	1.744790
C	-0.062492	-2.014429	0.018590
H	0.764908	-2.014129	-0.675510
H	0.464008	-2.718229	0.646190
H	-0.671292	-2.533329	-0.706910
H	0.235408	2.830671	-1.143010
$end

$rem
JOBTYPE		SP
EXCHANGE	HF
CORRELATION	pRIMP2
BASIS		cc-pvtz
METHOD		rimp2
AUX_BASIS	rimp2-cc-pvtz
SOLVENT_METHOD	PCM
PURECART	11111
SYMMETRY	false
MEM_TOTAL	110000
SCF_CONVERGENCE = 6
THRESH=10
$end

$solvent
dielectric 4.90
$end
--------------------------------------------------------------

             Standard Nuclear Orientation (Angstroms)
    I     Atom           X                Y                Z
 ----------------------------------------------------------------
    1      C      -0.0624920000    -0.5737290000     0.0185900000
    2      C       0.0128080000     0.2865710000     1.1179900000
    3      C       0.1334080000     1.6652710000     0.7952900000
    4      H      -0.0192920000    -0.0808290000     2.1546900000
    5      C       0.1527080000     1.8850710000    -0.5939100000
    6      S       0.0197080000     0.3650710000    -1.4682100000
    7      C       0.2283080000     2.7488710000     1.8331900000
    8      H       0.1912080000     2.3247710000     2.8552900000
    9      H      -0.6036920000     3.4783710000     1.7447900000
   10      H       1.1743080000     3.3228710000     1.7447900000
   11      C      -0.0624920000    -2.0144290000     0.0185900000
   12      H       0.7649080000    -2.0141290000    -0.6755100000
   13      H       0.4640080000    -2.7182290000     0.6461900000
   14      H      -0.6712920000    -2.5333290000    -0.7069100000
   15      H       0.2354080000     2.8306710000    -1.1430100000
 ----------------------------------------------------------------

   10    -629.4227891720      6.61e-07  Convergence criterion met
 Total energy in the final basis set =     -629.4227891720
        RIMP2         total energy =      -630.5985723212 a.u.

                    Orbital Energies (a.u.)
 --------------------------------------------------------------

 Alpha MOs
 -- Occupied --
-91.9786 -11.2813 -11.2530 -11.2467 -11.2265 -11.2256 -11.2195  -8.9786
 -6.6596  -6.6591  -6.6584  -1.1607  -1.0560  -0.9958  -0.9449  -0.8817
 -0.7460  -0.7182  -0.6491  -0.5892  -0.5760  -0.5652  -0.5531  -0.5475
 -0.5080  -0.4907  -0.4654  -0.4528  -0.3394  -0.2939

          Ground-State Mulliken Net Atomic Charges

     Atom                 Charge (a.u.)
  ----------------------------------------
      1 C                     0.060723
      2 C                    -0.297336
      3 C                     0.048319
      4 H                     0.180399
      5 C                    -0.267615
      6 S                    -0.003886
      7 C                    -0.273231
      8 H                     0.101468
      9 H                     0.107310
     10 H                     0.107149
     11 C                    -0.376598
     12 H                     0.127726
     13 H                     0.158753
     14 H                     0.132715
     15 H                     0.194105
  ----------------------------------------
  Sum of atomic charges =     0.000000

                    Cartesian Multipole Moments
 -----------------------------------------------------------------
    Charge (ESU x 10^10)
                -0.0000
    Dipole Moment (Debye)
         X       0.6401      Y      -0.4110      Z       0.9957
       Tot       1.2530
    Quadrupole Moments (Debye-Ang)
        XX     -54.1149     XY      -0.4577     YY     -41.9152
        XZ       0.3559     YZ       1.0848     ZZ     -48.7210

 Total job time:  157.92s(wall), 157.19s(cpu)
        *  Thank you very much for using Q-Chem.  Have a nice day.  *
