 Q-Chem 5.4, Q-Chem, Inc., Pleasanton, CA (2021)
 Q-Chem 5.4.0 for Intel X86 EM64T Linux

User input:
--------------------------------------------------------------
$molecule
0 1
C	-0.235925	-0.535395	0.012108
C	0.059475	0.276105	1.111508
C	0.532775	1.576505	0.788808
H	-0.066625	-0.070395	2.148208
C	0.608275	1.783905	-0.600392
S	0.086375	0.350205	-1.474692
C	0.904875	2.598705	1.826708
H	0.759275	2.198705	2.848808
H	0.290075	3.518705	1.738308
H	1.967275	2.908305	1.738308
C	-0.235925	-1.976095	0.012108
H	0.699275	-1.976295	0.552208
H	0.173675	-2.679895	-0.697292
H	-0.709525	-2.494995	0.832308
H	0.932975	2.675905	-1.149492
$end

$rem
JOBTYPE		SP
EXCHANGE	HF
CORRELATION	pRIMP2
BASIS		cc-pvtz
METHOD		rimp2
AUX_BASIS	rimp2-cc-pvtz
SOLVENT_METHOD	PCM
PURECART	11111
SYMMETRY	false
MEM_TOTAL	110000
SCF_CONVERGENCE = 6
THRESH=10
$end

$solvent
dielectric 4.90
$end
--------------------------------------------------------------

             Standard Nuclear Orientation (Angstroms)
    I     Atom           X                Y                Z
 ----------------------------------------------------------------
    1      C      -0.2359250000    -0.5353950000     0.0121080000
    2      C       0.0594750000     0.2761050000     1.1115080000
    3      C       0.5327750000     1.5765050000     0.7888080000
    4      H      -0.0666250000    -0.0703950000     2.1482080000
    5      C       0.6082750000     1.7839050000    -0.6003920000
    6      S       0.0863750000     0.3502050000    -1.4746920000
    7      C       0.9048750000     2.5987050000     1.8267080000
    8      H       0.7592750000     2.1987050000     2.8488080000
    9      H       0.2900750000     3.5187050000     1.7383080000
   10      H       1.9672750000     2.9083050000     1.7383080000
   11      C      -0.2359250000    -1.9760950000     0.0121080000
   12      H       0.6992750000    -1.9762950000     0.5522080000
   13      H       0.1736750000    -2.6798950000    -0.6972920000
   14      H      -0.7095250000    -2.4949950000     0.8323080000
   15      H       0.9329750000     2.6759050000    -1.1494920000
 ----------------------------------------------------------------

   10    -629.4153501317      6.24e-07  Convergence criterion met
 Total energy in the final basis set =     -629.4153501317
        RIMP2         total energy =      -630.5936831049 a.u.

                    Orbital Energies (a.u.)
 --------------------------------------------------------------

 Alpha MOs
 -- Occupied --
-91.9784 -11.2831 -11.2508 -11.2477 -11.2269 -11.2254 -11.2194  -8.9781
 -6.6591  -6.6585  -6.6579  -1.1620  -1.0557  -0.9984  -0.9392  -0.8830
 -0.7429  -0.7207  -0.6474  -0.5900  -0.5748  -0.5718  -0.5558  -0.5440
 -0.5094  -0.4850  -0.4666  -0.4540  -0.3371  -0.2900

          Ground-State Mulliken Net Atomic Charges

     Atom                 Charge (a.u.)
  ----------------------------------------
      1 C                     0.048552
      2 C                    -0.283437
      3 C                     0.042723
      4 H                     0.175098
      5 C                    -0.275222
      6 S                     0.002143
      7 C                    -0.271702
      8 H                     0.101321
      9 H                     0.107419
     10 H                     0.106714
     11 C                    -0.390124
     12 H                     0.149122
     13 H                     0.160717
     14 H                     0.134490
     15 H                     0.192184
  ----------------------------------------
  Sum of atomic charges =     0.000000

                    Cartesian Multipole Moments
 -----------------------------------------------------------------
    Charge (ESU x 10^10)
                -0.0000
    Dipole Moment (Debye)
         X       1.0246      Y      -0.5988      Z       1.7778
       Tot       2.1375
    Quadrupole Moments (Debye-Ang)
        XX     -53.5529     XY       1.4790     YY     -43.1539
        XZ      -0.1495     YZ      -0.3220     ZZ     -48.5679

 Total job time:  159.35s(wall), 157.34s(cpu)
        *  Thank you very much for using Q-Chem.  Have a nice day.  *
