 Q-Chem 5.4, Q-Chem, Inc., Pleasanton, CA (2021)
 Q-Chem 5.4.0 for Intel X86 EM64T Linux

User input:
--------------------------------------------------------------
$molecule
0 1
C	-0.336977	-0.485419	0.010669
C	0.094823	0.262481	1.110069
C	0.786823	1.460981	0.787369
H	-0.089577	-0.056919	2.146769
C	0.897123	1.652081	-0.601831
S	0.134223	0.330681	-1.476131
C	1.330723	2.402981	1.825269
H	1.117923	2.034381	2.847369
H	0.885023	3.415781	1.736869
H	2.430723	2.523381	1.736869
C	-0.336977	-1.926119	0.010669
H	-0.706477	-1.926319	1.025469
H	0.432823	-2.629919	0.290869
H	-1.226977	-2.445019	-0.313231
H	1.371823	2.474081	-1.150931
$end

$rem
JOBTYPE		SP
EXCHANGE	HF
CORRELATION	pRIMP2
BASIS		cc-pvtz
METHOD		rimp2
AUX_BASIS	rimp2-cc-pvtz
SOLVENT_METHOD	PCM
PURECART	11111
SYMMETRY	false
MEM_TOTAL	110000
SCF_CONVERGENCE = 6
THRESH=10
$end

$solvent
dielectric 4.90
$end
--------------------------------------------------------------

             Standard Nuclear Orientation (Angstroms)
    I     Atom           X                Y                Z
 ----------------------------------------------------------------
    1      C      -0.3369770000    -0.4854190000     0.0106690000
    2      C       0.0948230000     0.2624810000     1.1100690000
    3      C       0.7868230000     1.4609810000     0.7873690000
    4      H      -0.0895770000    -0.0569190000     2.1467690000
    5      C       0.8971230000     1.6520810000    -0.6018310000
    6      S       0.1342230000     0.3306810000    -1.4761310000
    7      C       1.3307230000     2.4029810000     1.8252690000
    8      H       1.1179230000     2.0343810000     2.8473690000
    9      H       0.8850230000     3.4157810000     1.7368690000
   10      H       2.4307230000     2.5233810000     1.7368690000
   11      C      -0.3369770000    -1.9261190000     0.0106690000
   12      H      -0.7064770000    -1.9263190000     1.0254690000
   13      H       0.4328230000    -2.6299190000     0.2908690000
   14      H      -1.2269770000    -2.4450190000    -0.3132310000
   15      H       1.3718230000     2.4740810000    -1.1509310000
 ----------------------------------------------------------------

   10    -629.4064083187      5.23e-07  Convergence criterion met
 Total energy in the final basis set =     -629.4064083187
        RIMP2         total energy =      -630.5884844599 a.u.

                    Orbital Energies (a.u.)
 --------------------------------------------------------------

 Alpha MOs
 -- Occupied --
-91.9735 -11.2685 -11.2637 -11.2477 -11.2391 -11.2279 -11.2134  -8.9740
 -6.6549  -6.6542  -6.6537  -1.1633  -1.0535  -0.9993  -0.9388  -0.8843
 -0.7434  -0.7259  -0.6476  -0.5875  -0.5796  -0.5677  -0.5574  -0.5420
 -0.5142  -0.4812  -0.4650  -0.4335  -0.3377  -0.3033

          Ground-State Mulliken Net Atomic Charges

     Atom                 Charge (a.u.)
  ----------------------------------------
      1 C                     0.006705
      2 C                    -0.248723
      3 C                     0.032275
      4 H                     0.178452
      5 C                    -0.238042
      6 S                    -0.003331
      7 C                    -0.270323
      8 H                     0.101366
      9 H                     0.106857
     10 H                     0.106696
     11 C                    -0.356332
     12 H                     0.114411
     13 H                     0.150562
     14 H                     0.125537
     15 H                     0.193891
  ----------------------------------------
  Sum of atomic charges =     0.000000

                    Cartesian Multipole Moments
 -----------------------------------------------------------------
    Charge (ESU x 10^10)
                -0.0000
    Dipole Moment (Debye)
         X       0.7003      Y       0.1340      Z       2.1702
       Tot       2.2843
    Quadrupole Moments (Debye-Ang)
        XX     -51.5841     XY       4.2476     YY     -44.7369
        XZ       0.0622     YZ      -1.0851     ZZ     -48.7498

 Total job time:  157.33s(wall), 155.39s(cpu)
        *  Thank you very much for using Q-Chem.  Have a nice day.  *
