 Q-Chem 5.4, Q-Chem, Inc., Pleasanton, CA (2021)
 Q-Chem 5.4.0 for Intel X86 EM64T Linux

User input:
--------------------------------------------------------------
$molecule
0 1
C	-0.435763	-0.417597	0.010154
C	0.119337	0.243903	1.109554
C	1.008937	1.304103	0.786854
H	-0.117663	-0.038597	2.146254
C	1.150837	1.473103	-0.602346
S	0.170037	0.304303	-1.476646
C	1.708137	2.137303	1.824754
H	1.434537	1.811303	2.846854
H	1.445137	3.212103	1.736354
H	2.812337	2.064903	1.736354
C	-0.435763	-1.858297	0.010154
H	-0.623463	-1.857997	1.073754
H	-1.242463	-2.562097	-0.132146
H	0.496937	-2.377197	0.174654
H	1.760937	2.200203	-1.151446
$end

$rem
JOBTYPE		SP
EXCHANGE	HF
CORRELATION	pRIMP2
BASIS		cc-pvtz
METHOD		rimp2
AUX_BASIS	rimp2-cc-pvtz
SOLVENT_METHOD	PCM
PURECART	11111
SYMMETRY	false
MEM_TOTAL	110000
SCF_CONVERGENCE = 6
THRESH=10
$end

$solvent
dielectric 4.90
$end
--------------------------------------------------------------

             Standard Nuclear Orientation (Angstroms)
    I     Atom           X                Y                Z
 ----------------------------------------------------------------
    1      C      -0.4357630000    -0.4175970000     0.0101540000
    2      C       0.1193370000     0.2439030000     1.1095540000
    3      C       1.0089370000     1.3041030000     0.7868540000
    4      H      -0.1176630000    -0.0385970000     2.1462540000
    5      C       1.1508370000     1.4731030000    -0.6023460000
    6      S       0.1700370000     0.3043030000    -1.4766460000
    7      C       1.7081370000     2.1373030000     1.8247540000
    8      H       1.4345370000     1.8113030000     2.8468540000
    9      H       1.4451370000     3.2121030000     1.7363540000
   10      H       2.8123370000     2.0649030000     1.7363540000
   11      C      -0.4357630000    -1.8582970000     0.0101540000
   12      H      -0.6234630000    -1.8579970000     1.0737540000
   13      H      -1.2424630000    -2.5620970000    -0.1321460000
   14      H       0.4969370000    -2.3771970000     0.1746540000
   15      H       1.7609370000     2.2002030000    -1.1514460000
 ----------------------------------------------------------------

   10    -629.3940177269      5.58e-07  Convergence criterion met
 Total energy in the final basis set =     -629.3940177269
        RIMP2         total energy =      -630.5787023631 a.u.

                    Orbital Energies (a.u.)
 --------------------------------------------------------------

 Alpha MOs
 -- Occupied --
-91.9728 -11.2680 -11.2641 -11.2481 -11.2424 -11.2284 -11.2121  -8.9734
 -6.6543  -6.6536  -6.6532  -1.1662  -1.0544  -0.9998  -0.9367  -0.8840
 -0.7441  -0.7283  -0.6450  -0.5918  -0.5808  -0.5667  -0.5569  -0.5422
 -0.5148  -0.4773  -0.4655  -0.4302  -0.3367  -0.3048

          Ground-State Mulliken Net Atomic Charges

     Atom                 Charge (a.u.)
  ----------------------------------------
      1 C                    -0.012622
      2 C                    -0.226943
      3 C                     0.027748
      4 H                     0.176974
      5 C                    -0.227817
      6 S                    -0.000256
      7 C                    -0.268744
      8 H                     0.101386
      9 H                     0.107008
     10 H                     0.106253
     11 C                    -0.356062
     12 H                     0.110222
     13 H                     0.135097
     14 H                     0.133299
     15 H                     0.194456
  ----------------------------------------
  Sum of atomic charges =     0.000000

                    Cartesian Multipole Moments
 -----------------------------------------------------------------
    Charge (ESU x 10^10)
                -0.0000
    Dipole Moment (Debye)
         X       1.2416      Y       0.1703      Z       2.2246
       Tot       2.5533
    Quadrupole Moments (Debye-Ang)
        XX     -50.2945     XY       4.8086     YY     -46.4429
        XZ      -0.1379     YZ      -1.0364     ZZ     -48.6551

 Total job time:  157.95s(wall), 156.38s(cpu)
        *  Thank you very much for using Q-Chem.  Have a nice day.  *
