 Q-Chem 5.4, Q-Chem, Inc., Pleasanton, CA (2021)
 Q-Chem 5.4.0 for Intel X86 EM64T Linux

User input:
--------------------------------------------------------------
$molecule
0 1
C	-0.022515	-0.578702	0.014457
C	-0.022515	0.284898	1.113857
C	-0.022415	1.668798	0.791157
H	-0.022515	-0.083902	2.150557
C	-0.022415	1.889498	-0.598043
S	-0.022515	0.363698	-1.472343
C	-0.022415	2.756598	1.829057
H	-0.022415	2.330898	2.851157
H	-0.914815	3.410898	1.740657
H	0.869985	3.410798	1.740657
C	0.227685	-1.997502	0.014457
H	1.291285	-1.810202	0.014557
H	0.349885	-2.690602	-0.804743
H	0.317785	-2.508602	0.961557
H	-0.022415	2.838698	-1.147143
$end

$rem
JOBTYPE		SP
EXCHANGE	HF
CORRELATION	pRIMP2
BASIS		cc-pvtz
METHOD		rimp2
AUX_BASIS	rimp2-cc-pvtz
SOLVENT_METHOD	PCM
PURECART	11111
SYMMETRY	false
MEM_TOTAL	110000
SCF_CONVERGENCE = 6
THRESH=10
$end

$solvent
dielectric 4.90
$end
--------------------------------------------------------------

             Standard Nuclear Orientation (Angstroms)
    I     Atom           X                Y                Z
 ----------------------------------------------------------------
    1      C      -0.0225150000    -0.5787020000     0.0144570000
    2      C      -0.0225150000     0.2848980000     1.1138570000
    3      C      -0.0224150000     1.6687980000     0.7911570000
    4      H      -0.0225150000    -0.0839020000     2.1505570000
    5      C      -0.0224150000     1.8894980000    -0.5980430000
    6      S      -0.0225150000     0.3636980000    -1.4723430000
    7      C      -0.0224150000     2.7565980000     1.8290570000
    8      H      -0.0224150000     2.3308980000     2.8511570000
    9      H      -0.9148150000     3.4108980000     1.7406570000
   10      H       0.8699850000     3.4107980000     1.7406570000
   11      C       0.2276850000    -1.9975020000     0.0144570000
   12      H       1.2912850000    -1.8102020000     0.0145570000
   13      H       0.3498850000    -2.6906020000    -0.8047430000
   14      H       0.3177850000    -2.5086020000     0.9615570000
   15      H      -0.0224150000     2.8386980000    -1.1471430000
 ----------------------------------------------------------------

   10    -629.4244824953      7.07e-07  Convergence criterion met
 Total energy in the final basis set =     -629.4244824953
        RIMP2         total energy =      -630.5997256492 a.u.

                    Orbital Energies (a.u.)
 --------------------------------------------------------------

 Alpha MOs
 -- Occupied --
-91.9777 -11.2867 -11.2485 -11.2470 -11.2265 -11.2231 -11.2230  -8.9775
 -6.6585  -6.6580  -6.6574  -1.1609  -1.0566  -0.9974  -0.9415  -0.8826
 -0.7439  -0.7188  -0.6478  -0.5896  -0.5766  -0.5694  -0.5525  -0.5459
 -0.5073  -0.4932  -0.4665  -0.4565  -0.3387  -0.2882

          Ground-State Mulliken Net Atomic Charges

     Atom                 Charge (a.u.)
  ----------------------------------------
      1 C                     0.067520
      2 C                    -0.317369
      3 C                     0.054450
      4 H                     0.175936
      5 C                    -0.282393
      6 S                    -0.001525
      7 C                    -0.273389
      8 H                     0.101321
      9 H                     0.107307
     10 H                     0.107414
     11 C                    -0.381461
     12 H                     0.148116
     13 H                     0.161662
     14 H                     0.140020
     15 H                     0.192389
  ----------------------------------------
  Sum of atomic charges =     0.000000

                    Cartesian Multipole Moments
 -----------------------------------------------------------------
    Charge (ESU x 10^10)
                -0.0000
    Dipole Moment (Debye)
         X       1.0486      Y      -0.6265      Z       1.4114
       Tot       1.8666
    Quadrupole Moments (Debye-Ang)
        XX     -53.9516     XY      -2.1220     YY     -42.3224
        XZ       0.0167     YZ       0.4894     ZZ     -48.6193

 Total job time:  160.98s(wall), 156.14s(cpu)
        *  Thank you very much for using Q-Chem.  Have a nice day.  *
