 Q-Chem 5.4, Q-Chem, Inc., Pleasanton, CA (2021)
 Q-Chem 5.4.0 for Intel X86 EM64T Linux

User input:
--------------------------------------------------------------
$molecule
0 1
C	-0.291058	-0.512744	0.012832
C	0.073942	0.269956	1.112232
C	0.658842	1.524156	0.789532
H	-0.081958	-0.064344	2.148932
C	0.752142	1.724156	-0.599668
S	0.107242	0.341356	-1.473968
C	1.118542	2.509956	1.827432
H	0.938642	2.124256	2.849532
H	0.586242	3.480156	1.739032
H	2.203842	2.725856	1.739032
C	-0.291058	-1.953444	0.012832
H	0.723742	-1.953644	0.382332
H	-0.010858	-2.657244	-0.756968
H	-0.614958	-2.472344	0.902832
H	1.153242	2.584456	-1.148768
$end

$rem
JOBTYPE		SP
EXCHANGE	HF
CORRELATION	pRIMP2
BASIS		cc-pvtz
METHOD		rimp2
AUX_BASIS	rimp2-cc-pvtz
SOLVENT_METHOD	PCM
PURECART	11111
SYMMETRY	false
MEM_TOTAL	110000
SCF_CONVERGENCE = 6
THRESH=10
$end

$solvent
dielectric 4.90
$end
--------------------------------------------------------------

             Standard Nuclear Orientation (Angstroms)
    I     Atom           X                Y                Z
 ----------------------------------------------------------------
    1      C      -0.2910580000    -0.5127440000     0.0128320000
    2      C       0.0739420000     0.2699560000     1.1122320000
    3      C       0.6588420000     1.5241560000     0.7895320000
    4      H      -0.0819580000    -0.0643440000     2.1489320000
    5      C       0.7521420000     1.7241560000    -0.5996680000
    6      S       0.1072420000     0.3413560000    -1.4739680000
    7      C       1.1185420000     2.5099560000     1.8274320000
    8      H       0.9386420000     2.1242560000     2.8495320000
    9      H       0.5862420000     3.4801560000     1.7390320000
   10      H       2.2038420000     2.7258560000     1.7390320000
   11      C      -0.2910580000    -1.9534440000     0.0128320000
   12      H       0.7237420000    -1.9536440000     0.3823320000
   13      H      -0.0108580000    -2.6572440000    -0.7569680000
   14      H      -0.6149580000    -2.4723440000     0.9028320000
   15      H       1.1532420000     2.5844560000    -1.1487680000
 ----------------------------------------------------------------

   10    -629.4119655022      6.36e-07  Convergence criterion met
 Total energy in the final basis set =     -629.4119655022
        RIMP2         total energy =      -630.5908168927 a.u.

                    Orbital Energies (a.u.)
 --------------------------------------------------------------

 Alpha MOs
 -- Occupied --
-91.9783 -11.2829 -11.2514 -11.2480 -11.2270 -11.2250 -11.2202  -8.9781
 -6.6591  -6.6585  -6.6579  -1.1629  -1.0562  -0.9979  -0.9392  -0.8827
 -0.7436  -0.7206  -0.6469  -0.5893  -0.5771  -0.5706  -0.5546  -0.5446
 -0.5090  -0.4868  -0.4650  -0.4561  -0.3376  -0.2882

          Ground-State Mulliken Net Atomic Charges

     Atom                 Charge (a.u.)
  ----------------------------------------
      1 C                     0.043028
      2 C                    -0.288340
      3 C                     0.047380
      4 H                     0.174756
      5 C                    -0.276864
      6 S                     0.003592
      7 C                    -0.270816
      8 H                     0.101498
      9 H                     0.107498
     10 H                     0.106514
     11 C                    -0.385369
     12 H                     0.152005
     13 H                     0.160078
     14 H                     0.132542
     15 H                     0.192497
  ----------------------------------------
  Sum of atomic charges =     0.000000

                    Cartesian Multipole Moments
 -----------------------------------------------------------------
    Charge (ESU x 10^10)
                -0.0000
    Dipole Moment (Debye)
         X       1.1806      Y      -0.6343      Z       1.6693
       Tot       2.1407
    Quadrupole Moments (Debye-Ang)
        XX     -53.2483     XY       2.0243     YY     -43.6872
        XZ      -0.0379     YZ      -0.1192     ZZ     -48.5118

 Total job time:  160.35s(wall), 156.92s(cpu)
        *  Thank you very much for using Q-Chem.  Have a nice day.  *
