 Q-Chem 5.4, Q-Chem, Inc., Pleasanton, CA (2021)
 Q-Chem 5.4.0 for Intel X86 EM64T Linux

User input:
--------------------------------------------------------------
$molecule
0 1
C	-0.438241	-0.417594	0.019394
C	0.116859	0.243906	1.118794
C	1.006459	1.304106	0.796094
H	-0.120141	-0.038594	2.155494
C	1.148359	1.473106	-0.593106
S	0.167559	0.304306	-1.467406
C	1.705659	2.137306	1.833994
H	1.432059	1.811306	2.856094
H	1.442659	3.212106	1.745594
H	2.809859	2.064906	1.745594
C	-0.438241	-1.858294	0.019394
H	-0.068741	-1.858494	-0.995406
H	-1.208041	-2.562094	-0.260806
H	0.451759	-2.377194	0.343294
H	1.758459	2.200206	-1.142206
$end

$rem
JOBTYPE		SP
EXCHANGE	HF
CORRELATION	pRIMP2
BASIS		cc-pvtz
METHOD		rimp2
AUX_BASIS	rimp2-cc-pvtz
SOLVENT_METHOD	PCM
PURECART	11111
SYMMETRY	false
MEM_TOTAL	110000
SCF_CONVERGENCE = 6
THRESH=10
$end

$solvent
dielectric 4.90
$end
--------------------------------------------------------------

             Standard Nuclear Orientation (Angstroms)
    I     Atom           X                Y                Z
 ----------------------------------------------------------------
    1      C      -0.4382410000    -0.4175940000     0.0193940000
    2      C       0.1168590000     0.2439060000     1.1187940000
    3      C       1.0064590000     1.3041060000     0.7960940000
    4      H      -0.1201410000    -0.0385940000     2.1554940000
    5      C       1.1483590000     1.4731060000    -0.5931060000
    6      S       0.1675590000     0.3043060000    -1.4674060000
    7      C       1.7056590000     2.1373060000     1.8339940000
    8      H       1.4320590000     1.8113060000     2.8560940000
    9      H       1.4426590000     3.2121060000     1.7455940000
   10      H       2.8098590000     2.0649060000     1.7455940000
   11      C      -0.4382410000    -1.8582940000     0.0193940000
   12      H      -0.0687410000    -1.8584940000    -0.9954060000
   13      H      -1.2080410000    -2.5620940000    -0.2608060000
   14      H       0.4517590000    -2.3771940000     0.3432940000
   15      H       1.7584590000     2.2002060000    -1.1422060000
 ----------------------------------------------------------------

   10    -629.3860958322      5.94e-07  Convergence criterion met
 Total energy in the final basis set =     -629.3860958322
        RIMP2         total energy =      -630.5706932616 a.u.

                    Orbital Energies (a.u.)
 --------------------------------------------------------------

 Alpha MOs
 -- Occupied --
-91.9753 -11.2670 -11.2637 -11.2473 -11.2387 -11.2276 -11.2105  -8.9762
 -6.6570  -6.6563  -6.6558  -1.1669  -1.0562  -0.9942  -0.9446  -0.8795
 -0.7510  -0.7223  -0.6450  -0.5905  -0.5784  -0.5655  -0.5514  -0.5483
 -0.5129  -0.4779  -0.4635  -0.4401  -0.3357  -0.3011

          Ground-State Mulliken Net Atomic Charges

     Atom                 Charge (a.u.)
  ----------------------------------------
      1 C                    -0.008662
      2 C                    -0.229155
      3 C                     0.034240
      4 H                     0.179125
      5 C                    -0.233602
      6 S                    -0.002516
      7 C                    -0.269882
      8 H                     0.101811
      9 H                     0.107329
     10 H                     0.105447
     11 C                    -0.373356
     12 H                     0.127012
     13 H                     0.133159
     14 H                     0.133312
     15 H                     0.195739
  ----------------------------------------
  Sum of atomic charges =     0.000000

                    Cartesian Multipole Moments
 -----------------------------------------------------------------
    Charge (ESU x 10^10)
                -0.0000
    Dipole Moment (Debye)
         X       1.5495      Y       0.1368      Z       1.0109
       Tot       1.8552
    Quadrupole Moments (Debye-Ang)
        XX     -50.7092     XY       4.0392     YY     -46.6053
        XZ       0.3817     YZ       1.3443     ZZ     -48.3834

 Total job time:  159.55s(wall), 157.53s(cpu)
        *  Thank you very much for using Q-Chem.  Have a nice day.  *
