 Q-Chem 5.4, Q-Chem, Inc., Pleasanton, CA (2021)
 Q-Chem 5.4.0 for Intel X86 EM64T Linux

User input:
--------------------------------------------------------------
$molecule
0 1
C	-0.058868	-0.573729	0.010154
C	0.016432	0.286571	1.109554
C	0.137032	1.665271	0.786854
H	-0.015668	-0.080829	2.146254
C	0.156332	1.885071	-0.602346
S	0.023332	0.365071	-1.476646
C	0.231932	2.748871	1.824754
H	0.194832	2.324771	2.846854
H	-0.600068	3.478371	1.736354
H	1.177932	3.322871	1.736354
C	-0.058868	-2.014429	0.010154
H	-0.246568	-2.014129	1.073754
H	-0.865568	-2.718229	-0.132146
H	0.873832	-2.533329	0.174654
H	0.239032	2.830671	-1.151446
$end

$rem
JOBTYPE		SP
EXCHANGE	HF
CORRELATION	pRIMP2
BASIS		cc-pvtz
METHOD		rimp2
AUX_BASIS	rimp2-cc-pvtz
SOLVENT_METHOD	PCM
PURECART	11111
SYMMETRY	false
MEM_TOTAL	110000
SCF_CONVERGENCE = 6
THRESH=10
$end

$solvent
dielectric 4.90
$end
--------------------------------------------------------------

             Standard Nuclear Orientation (Angstroms)
    I     Atom           X                Y                Z
 ----------------------------------------------------------------
    1      C      -0.0588680000    -0.5737290000     0.0101540000
    2      C       0.0164320000     0.2865710000     1.1095540000
    3      C       0.1370320000     1.6652710000     0.7868540000
    4      H      -0.0156680000    -0.0808290000     2.1462540000
    5      C       0.1563320000     1.8850710000    -0.6023460000
    6      S       0.0233320000     0.3650710000    -1.4766460000
    7      C       0.2319320000     2.7488710000     1.8247540000
    8      H       0.1948320000     2.3247710000     2.8468540000
    9      H      -0.6000680000     3.4783710000     1.7363540000
   10      H       1.1779320000     3.3228710000     1.7363540000
   11      C      -0.0588680000    -2.0144290000     0.0101540000
   12      H      -0.2465680000    -2.0141290000     1.0737540000
   13      H      -0.8655680000    -2.7182290000    -0.1321460000
   14      H       0.8738320000    -2.5333290000     0.1746540000
   15      H       0.2390320000     2.8306710000    -1.1514460000
 ----------------------------------------------------------------

   10    -629.4248112024      4.96e-07  Convergence criterion met
 Total energy in the final basis set =     -629.4248112024
        RIMP2         total energy =      -630.6027182983 a.u.

                    Orbital Energies (a.u.)
 --------------------------------------------------------------

 Alpha MOs
 -- Occupied --
-91.9748 -11.2779 -11.2571 -11.2470 -11.2342 -11.2274 -11.2166  -8.9749
 -6.6559  -6.6553  -6.6548  -1.1610  -1.0541  -0.9997  -0.9396  -0.8845
 -0.7422  -0.7241  -0.6486  -0.5921  -0.5777  -0.5664  -0.5597  -0.5420
 -0.5102  -0.4855  -0.4677  -0.4375  -0.3380  -0.3038

          Ground-State Mulliken Net Atomic Charges

     Atom                 Charge (a.u.)
  ----------------------------------------
      1 C                     0.065791
      2 C                    -0.271531
      3 C                     0.031967
      4 H                     0.177344
      5 C                    -0.251797
      6 S                    -0.008033
      7 C                    -0.273566
      8 H                     0.101097
      9 H                     0.107138
     10 H                     0.107351
     11 C                    -0.373441
     12 H                     0.120166
     13 H                     0.149392
     14 H                     0.124936
     15 H                     0.193186
  ----------------------------------------
  Sum of atomic charges =     0.000000

                    Cartesian Multipole Moments
 -----------------------------------------------------------------
    Charge (ESU x 10^10)
                -0.0000
    Dipole Moment (Debye)
         X       0.0329      Y      -0.0937      Z       2.1450
       Tot       2.1473
    Quadrupole Moments (Debye-Ang)
        XX     -53.6282     XY       1.1490     YY     -42.2128
        XZ       0.0936     YZ      -1.0488     ZZ     -48.9671

 Total job time:  160.13s(wall), 159.24s(cpu)
        *  Thank you very much for using Q-Chem.  Have a nice day.  *
