 Q-Chem 5.4, Q-Chem, Inc., Pleasanton, CA (2021)
 Q-Chem 5.4.0 for Intel X86 EM64T Linux

User input:
--------------------------------------------------------------
$molecule
0 1
C	-0.004696	-0.576309	0.013623
C	-0.004696	0.287291	1.113023
C	-0.004596	1.671191	0.790323
H	-0.004696	-0.081509	2.149723
C	-0.004596	1.891891	-0.598877
S	-0.004696	0.366091	-1.473177
C	-0.004596	2.758991	1.828223
H	-0.004596	2.333291	2.850323
H	-0.896996	3.413291	1.739823
H	0.887804	3.413191	1.739823
C	-0.004696	-2.017009	0.013623
H	1.058904	-2.017209	0.201323
H	0.137604	-2.720809	-0.793077
H	-0.169196	-2.535909	0.946323
H	-0.004596	2.841091	-1.147977
$end

$rem
JOBTYPE		SP
EXCHANGE	HF
CORRELATION	pRIMP2
BASIS		cc-pvtz
METHOD		rimp2
AUX_BASIS	rimp2-cc-pvtz
SOLVENT_METHOD	PCM
PURECART	11111
SYMMETRY	false
MEM_TOTAL	110000
SCF_CONVERGENCE = 6
THRESH=10
$end

$solvent
dielectric 4.90
$end
--------------------------------------------------------------

             Standard Nuclear Orientation (Angstroms)
    I     Atom           X                Y                Z
 ----------------------------------------------------------------
    1      C      -0.0046960000    -0.5763090000     0.0136230000
    2      C      -0.0046960000     0.2872910000     1.1130230000
    3      C      -0.0045960000     1.6711910000     0.7903230000
    4      H      -0.0046960000    -0.0815090000     2.1497230000
    5      C      -0.0045960000     1.8918910000    -0.5988770000
    6      S      -0.0046960000     0.3660910000    -1.4731770000
    7      C      -0.0045960000     2.7589910000     1.8282230000
    8      H      -0.0045960000     2.3332910000     2.8503230000
    9      H      -0.8969960000     3.4132910000     1.7398230000
   10      H       0.8878040000     3.4131910000     1.7398230000
   11      C      -0.0046960000    -2.0170090000     0.0136230000
   12      H       1.0589040000    -2.0172090000     0.2013230000
   13      H       0.1376040000    -2.7208090000    -0.7930770000
   14      H      -0.1691960000    -2.5359090000     0.9463230000
   15      H      -0.0045960000     2.8410910000    -1.1479770000
 ----------------------------------------------------------------

   10    -629.4247535327      6.95e-07  Convergence criterion met
 Total energy in the final basis set =     -629.4247535327
        RIMP2         total energy =      -630.6001529162 a.u.

                    Orbital Energies (a.u.)
 --------------------------------------------------------------

 Alpha MOs
 -- Occupied --
-91.9778 -11.2867 -11.2481 -11.2468 -11.2265 -11.2231 -11.2224  -8.9776
 -6.6586  -6.6580  -6.6574  -1.1601  -1.0562  -0.9978  -0.9413  -0.8830
 -0.7433  -0.7188  -0.6479  -0.5897  -0.5742  -0.5710  -0.5540  -0.5451
 -0.5080  -0.4928  -0.4654  -0.4559  -0.3381  -0.2883

          Ground-State Mulliken Net Atomic Charges

     Atom                 Charge (a.u.)
  ----------------------------------------
      1 C                     0.073076
      2 C                    -0.311941
      3 C                     0.049355
      4 H                     0.175381
      5 C                    -0.281187
      6 S                    -0.000468
      7 C                    -0.275047
      8 H                     0.101249
      9 H                     0.107301
     10 H                     0.107461
     11 C                    -0.387661
     12 H                     0.144977
     13 H                     0.163628
     14 H                     0.141814
     15 H                     0.192062
  ----------------------------------------
  Sum of atomic charges =     0.000000

                    Cartesian Multipole Moments
 -----------------------------------------------------------------
    Charge (ESU x 10^10)
                -0.0000
    Dipole Moment (Debye)
         X       0.7370      Y      -0.7989      Z       1.5294
       Tot       1.8763
    Quadrupole Moments (Debye-Ang)
        XX     -54.3820     XY      -1.5787     YY     -41.6998
        XZ      -0.0731     YZ       0.2456     ZZ     -48.6093

 Total job time:  158.40s(wall), 155.22s(cpu)
        *  Thank you very much for using Q-Chem.  Have a nice day.  *
