 Q-Chem 5.4, Q-Chem, Inc., Pleasanton, CA (2021)
 Q-Chem 5.4.0 for Intel X86 EM64T Linux

User input:
--------------------------------------------------------------
$molecule
0 1
C	-0.004105	-0.576309	0.017710
C	-0.004105	0.287291	1.117110
C	-0.004005	1.671191	0.794410
H	-0.004105	-0.081509	2.153810
C	-0.004005	1.891891	-0.594790
S	-0.004105	0.366091	-1.469090
C	-0.004005	2.758991	1.832310
H	-0.004005	2.333291	2.854410
H	-0.896405	3.413291	1.743910
H	0.888395	3.413191	1.743910
C	-0.004105	-2.017009	0.017710
H	0.823295	-2.017209	-0.676390
H	-0.530605	-2.720809	-0.609890
H	0.604695	-2.535909	0.743210
H	-0.004005	2.841091	-1.143890
$end

$rem
JOBTYPE		SP
EXCHANGE	HF
CORRELATION	pRIMP2
BASIS		cc-pvtz
METHOD		rimp2
AUX_BASIS	rimp2-cc-pvtz
SOLVENT_METHOD	PCM
PURECART	11111
SYMMETRY	false
MEM_TOTAL	110000
SCF_CONVERGENCE = 6
THRESH=10
$end

$solvent
dielectric 4.90
$end
--------------------------------------------------------------

   10    -629.4235788307      6.28e-07  Convergence criterion met
 Total energy in the final basis set =     -629.4235788307
        RIMP2         total energy =      -630.5996190894 a.u.
 Total job time:  159.40s(wall), 157.21s(cpu)
        *  Thank you very much for using Q-Chem.  Have a nice day.  *
 Q-Chem 5.4, Q-Chem, Inc., Pleasanton, CA (2021)
 Q-Chem 5.4.0 for Intel X86 EM64T Linux

User input:
--------------------------------------------------------------
$molecule
0 1
C	-0.004105	-0.576309	0.017710
C	-0.004105	0.287291	1.117110
C	-0.004005	1.671191	0.794410
H	-0.004105	-0.081509	2.153810
C	-0.004005	1.891891	-0.594790
S	-0.004105	0.366091	-1.469090
C	-0.004005	2.758991	1.832310
H	-0.004005	2.333291	2.854410
H	-0.896405	3.413291	1.743910
H	0.888395	3.413191	1.743910
C	-0.004105	-2.017009	0.017710
H	0.823295	-2.017209	-0.676390
H	-0.530605	-2.720809	-0.609890
H	0.604695	-2.535909	0.743210
H	-0.004005	2.841091	-1.143890
$end

$rem
JOBTYPE		SP
EXCHANGE	HF
CORRELATION	pRIMP2
BASIS		cc-pvtz
METHOD		rimp2
AUX_BASIS	rimp2-cc-pvtz
SOLVENT_METHOD	PCM
PURECART	11111
SYMMETRY	false
MEM_TOTAL	110000
SCF_CONVERGENCE = 6
THRESH=10
$end

$solvent
dielectric 4.90
$end
--------------------------------------------------------------

             Standard Nuclear Orientation (Angstroms)
    I     Atom           X                Y                Z
 ----------------------------------------------------------------
    1      C      -0.0041050000    -0.5763090000     0.0177100000
    2      C      -0.0041050000     0.2872910000     1.1171100000
    3      C      -0.0040050000     1.6711910000     0.7944100000
    4      H      -0.0041050000    -0.0815090000     2.1538100000
    5      C      -0.0040050000     1.8918910000    -0.5947900000
    6      S      -0.0041050000     0.3660910000    -1.4690900000
    7      C      -0.0040050000     2.7589910000     1.8323100000
    8      H      -0.0040050000     2.3332910000     2.8544100000
    9      H      -0.8964050000     3.4132910000     1.7439100000
   10      H       0.8883950000     3.4131910000     1.7439100000
   11      C      -0.0041050000    -2.0170090000     0.0177100000
   12      H       0.8232950000    -2.0172090000    -0.6763900000
   13      H      -0.5306050000    -2.7208090000    -0.6098900000
   14      H       0.6046950000    -2.5359090000     0.7432100000
   15      H      -0.0040050000     2.8410910000    -1.1438900000
 ----------------------------------------------------------------

   10    -629.4235788307      6.28e-07  Convergence criterion met
 Total energy in the final basis set =     -629.4235788307
        RIMP2         total energy =      -630.5996190894 a.u.

                    Orbital Energies (a.u.)
 --------------------------------------------------------------

 Alpha MOs
 -- Occupied --
-91.9781 -11.2813 -11.2532 -11.2469 -11.2266 -11.2266 -11.2194  -8.9781
 -6.6590  -6.6585  -6.6579  -1.1605  -1.0557  -0.9962  -0.9446  -0.8821
 -0.7460  -0.7184  -0.6477  -0.5909  -0.5758  -0.5680  -0.5506  -0.5476
 -0.5082  -0.4901  -0.4652  -0.4524  -0.3391  -0.2944

          Ground-State Mulliken Net Atomic Charges

     Atom                 Charge (a.u.)
  ----------------------------------------
      1 C                     0.053514
      2 C                    -0.279848
      3 C                     0.039344
      4 H                     0.181457
      5 C                    -0.263606
      6 S                    -0.007366
      7 C                    -0.273629
      8 H                     0.101416
      9 H                     0.107268
     10 H                     0.107137
     11 C                    -0.372379
     12 H                     0.125778
     13 H                     0.150093
     14 H                     0.136991
     15 H                     0.193831
  ----------------------------------------
  Sum of atomic charges =     0.000000

                    Cartesian Multipole Moments
 -----------------------------------------------------------------
    Charge (ESU x 10^10)
                -0.0000
    Dipole Moment (Debye)
         X       0.5398      Y      -0.3905      Z       1.0243
       Tot       1.2219
    Quadrupole Moments (Debye-Ang)
        XX     -54.1331     XY      -1.0960     YY     -41.8638
        XZ       0.3226     YZ       1.2901     ZZ     -48.7025

 Total job time:  156.78s(wall), 155.25s(cpu)
        *  Thank you very much for using Q-Chem.  Have a nice day.  *
