 Q-Chem 5.4, Q-Chem, Inc., Pleasanton, CA (2021)
 Q-Chem 5.4.0 for Intel X86 EM64T Linux

User input:
--------------------------------------------------------------
$molecule
0 1
C	-0.059422	-0.573727	0.010154
C	0.015878	0.286573	1.109554
C	0.136478	1.665273	0.786854
H	-0.016222	-0.080827	2.146254
C	0.155778	1.885073	-0.602346
S	0.022778	0.365073	-1.476646
C	0.231378	2.748873	1.824754
H	0.194278	2.324773	2.846854
H	-0.600622	3.478373	1.736354
H	1.177378	3.322873	1.736354
C	-0.059422	-2.014427	0.010154
H	0.127978	-2.014627	1.073754
H	0.747378	-2.718227	-0.132046
H	-0.992122	-2.533327	0.174654
H	0.238478	2.830673	-1.151446
$end

$rem
JOBTYPE		SP
EXCHANGE	HF
CORRELATION	pRIMP2
BASIS		cc-pvtz
METHOD		rimp2
AUX_BASIS	rimp2-cc-pvtz
SOLVENT_METHOD	PCM
PURECART	11111
SYMMETRY	false
MEM_TOTAL	110000
SCF_CONVERGENCE = 6
THRESH=10
$end

$solvent
dielectric 4.90
$end
--------------------------------------------------------------

             Standard Nuclear Orientation (Angstroms)
    I     Atom           X                Y                Z
 ----------------------------------------------------------------
    1      C      -0.0594220000    -0.5737270000     0.0101540000
    2      C       0.0158780000     0.2865730000     1.1095540000
    3      C       0.1364780000     1.6652730000     0.7868540000
    4      H      -0.0162220000    -0.0808270000     2.1462540000
    5      C       0.1557780000     1.8850730000    -0.6023460000
    6      S       0.0227780000     0.3650730000    -1.4766460000
    7      C       0.2313780000     2.7488730000     1.8247540000
    8      H       0.1942780000     2.3247730000     2.8468540000
    9      H      -0.6006220000     3.4783730000     1.7363540000
   10      H       1.1773780000     3.3228730000     1.7363540000
   11      C      -0.0594220000    -2.0144270000     0.0101540000
   12      H       0.1279780000    -2.0146270000     1.0737540000
   13      H       0.7473780000    -2.7182270000    -0.1320460000
   14      H      -0.9921220000    -2.5333270000     0.1746540000
   15      H       0.2384780000     2.8306730000    -1.1514460000
 ----------------------------------------------------------------

   10    -629.4241208659      4.96e-07  Convergence criterion met
 Total energy in the final basis set =     -629.4241208659
        RIMP2         total energy =      -630.6021182563 a.u.

                    Orbital Energies (a.u.)
 --------------------------------------------------------------

 Alpha MOs
 -- Occupied --
-91.9750 -11.2778 -11.2571 -11.2470 -11.2341 -11.2274 -11.2163  -8.9751
 -6.6560  -6.6555  -6.6550  -1.1610  -1.0540  -0.9997  -0.9396  -0.8845
 -0.7422  -0.7241  -0.6487  -0.5916  -0.5777  -0.5672  -0.5591  -0.5419
 -0.5105  -0.4845  -0.4680  -0.4379  -0.3378  -0.3037

          Ground-State Mulliken Net Atomic Charges

     Atom                 Charge (a.u.)
  ----------------------------------------
      1 C                     0.066331
      2 C                    -0.270108
      3 C                     0.030301
      4 H                     0.177004
      5 C                    -0.251284
      6 S                    -0.007670
      7 C                    -0.273813
      8 H                     0.101090
      9 H                     0.107209
     10 H                     0.107261
     11 C                    -0.373920
     12 H                     0.121945
     13 H                     0.146747
     14 H                     0.125803
     15 H                     0.193103
  ----------------------------------------
  Sum of atomic charges =     0.000000

                    Cartesian Multipole Moments
 -----------------------------------------------------------------
    Charge (ESU x 10^10)
                -0.0000
    Dipole Moment (Debye)
         X       0.2264      Y      -0.0888      Z       2.1436
       Tot       2.1574
    Quadrupole Moments (Debye-Ang)
        XX     -53.6587     XY       0.3809     YY     -42.2342
        XZ      -0.1215     YZ      -1.0514     ZZ     -48.9532

 Total job time:  162.26s(wall), 159.53s(cpu)
        *  Thank you very much for using Q-Chem.  Have a nice day.  *
