 Q-Chem 5.4, Q-Chem, Inc., Pleasanton, CA (2021)
 Q-Chem 5.4.0 for Intel X86 EM64T Linux

User input:
--------------------------------------------------------------
$molecule
0 1
C	-0.592148	-0.237127	0.013623
C	0.155752	0.194673	1.113023
C	1.354252	0.886573	0.790323
H	-0.163648	0.010273	2.149723
C	1.545352	0.996873	-0.598877
S	0.224052	0.234073	-1.473177
C	2.296352	1.430473	1.828223
H	1.927652	1.217573	2.850323
H	2.416752	2.530373	1.739823
H	3.309152	0.984673	1.739823
C	-0.592148	-1.677827	0.013623
H	0.471452	-1.678027	0.201323
H	-0.449848	-2.381627	-0.793077
H	-0.756648	-2.196727	0.946323
H	2.367452	1.471473	-1.147977
$end

$rem
JOBTYPE		SP
EXCHANGE	HF
CORRELATION	pRIMP2
BASIS		cc-pvtz
METHOD		rimp2
AUX_BASIS	rimp2-cc-pvtz
SOLVENT_METHOD	PCM
PURECART	11111
SYMMETRY	false
MEM_TOTAL	110000
SCF_CONVERGENCE = 6
THRESH=10
$end

$solvent
dielectric 4.90
$end
--------------------------------------------------------------

             Standard Nuclear Orientation (Angstroms)
    I     Atom           X                Y                Z
 ----------------------------------------------------------------
    1      C      -0.5921480000    -0.2371270000     0.0136230000
    2      C       0.1557520000     0.1946730000     1.1130230000
    3      C       1.3542520000     0.8865730000     0.7903230000
    4      H      -0.1636480000     0.0102730000     2.1497230000
    5      C       1.5453520000     0.9968730000    -0.5988770000
    6      S       0.2240520000     0.2340730000    -1.4731770000
    7      C       2.2963520000     1.4304730000     1.8282230000
    8      H       1.9276520000     1.2175730000     2.8503230000
    9      H       2.4167520000     2.5303730000     1.7398230000
   10      H       3.3091520000     0.9846730000     1.7398230000
   11      C      -0.5921480000    -1.6778270000     0.0136230000
   12      H       0.4714520000    -1.6780270000     0.2013230000
   13      H      -0.4498480000    -2.3816270000    -0.7930770000
   14      H      -0.7566480000    -2.1967270000     0.9463230000
   15      H       2.3674520000     1.4714730000    -1.1479770000
 ----------------------------------------------------------------

   11    -629.3465995664      5.93e-07  Convergence criterion met
 Total energy in the final basis set =     -629.3465995664
        RIMP2         total energy =      -630.5396664072 a.u.

                    Orbital Energies (a.u.)
 --------------------------------------------------------------

 Alpha MOs
 -- Occupied --
-91.9775 -11.2791 -11.2565 -11.2517 -11.2439 -11.2295 -11.2135  -8.9782
 -6.6590  -6.6582  -6.6579  -1.1789  -1.0594  -1.0003  -0.9355  -0.8815
 -0.7514  -0.7308  -0.6451  -0.5919  -0.5841  -0.5701  -0.5531  -0.5465
 -0.5119  -0.4891  -0.4608  -0.4374  -0.3371  -0.2880

          Ground-State Mulliken Net Atomic Charges

     Atom                 Charge (a.u.)
  ----------------------------------------
      1 C                    -0.085168
      2 C                    -0.141370
      3 C                    -0.017761
      4 H                     0.182652
      5 C                    -0.206190
      6 S                     0.024685
      7 C                    -0.267147
      8 H                     0.102918
      9 H                     0.107671
     10 H                     0.104241
     11 C                    -0.364849
     12 H                     0.107179
     13 H                     0.144027
     14 H                     0.111305
     15 H                     0.197805
  ----------------------------------------
  Sum of atomic charges =     0.000000

                    Cartesian Multipole Moments
 -----------------------------------------------------------------
    Charge (ESU x 10^10)
                -0.0000
    Dipole Moment (Debye)
         X       2.7086      Y      -0.1090      Z       1.6583
       Tot       3.1778
    Quadrupole Moments (Debye-Ang)
        XX     -48.9639     XY       3.7883     YY     -49.8890
        XZ      -0.2829     YZ      -0.1319     ZZ     -47.5669

 Total job time:  190.35s(wall), 188.79s(cpu)
        *  Thank you very much for using Q-Chem.  Have a nice day.  *
