 Q-Chem 5.4, Q-Chem, Inc., Pleasanton, CA (2021)
 Q-Chem 5.4.0 for Intel X86 EM64T Linux

User input:
--------------------------------------------------------------
$molecule
0 1
C	-0.584792	-0.237127	0.019119
C	0.163108	0.194673	1.118519
C	1.361608	0.886573	0.795819
H	-0.156292	0.010273	2.155219
C	1.552708	0.996873	-0.593381
S	0.231408	0.234073	-1.467681
C	2.303708	1.430473	1.833719
H	1.935008	1.217573	2.855819
H	2.424108	2.530373	1.745319
H	3.316508	0.984673	1.745319
C	-0.584792	-1.677827	0.019119
H	-1.278892	-1.678027	-0.808281
H	-1.212392	-2.381627	0.545619
H	0.140708	-2.196727	-0.589681
H	2.374808	1.471473	-1.142481
$end

$rem
JOBTYPE		SP
EXCHANGE	HF
CORRELATION	pRIMP2
BASIS		cc-pvtz
METHOD		rimp2
AUX_BASIS	rimp2-cc-pvtz
SOLVENT_METHOD	PCM
PURECART	11111
SYMMETRY	false
MEM_TOTAL	110000
SCF_CONVERGENCE = 6
THRESH=10
$end

$solvent
dielectric 4.90
$end
--------------------------------------------------------------

             Standard Nuclear Orientation (Angstroms)
    I     Atom           X                Y                Z
 ----------------------------------------------------------------
    1      C      -0.5847920000    -0.2371270000     0.0191190000
    2      C       0.1631080000     0.1946730000     1.1185190000
    3      C       1.3616080000     0.8865730000     0.7958190000
    4      H      -0.1562920000     0.0102730000     2.1552190000
    5      C       1.5527080000     0.9968730000    -0.5933810000
    6      S       0.2314080000     0.2340730000    -1.4676810000
    7      C       2.3037080000     1.4304730000     1.8337190000
    8      H       1.9350080000     1.2175730000     2.8558190000
    9      H       2.4241080000     2.5303730000     1.7453190000
   10      H       3.3165080000     0.9846730000     1.7453190000
   11      C      -0.5847920000    -1.6778270000     0.0191190000
   12      H      -1.2788920000    -1.6780270000    -0.8082810000
   13      H      -1.2123920000    -2.3816270000     0.5456190000
   14      H       0.1407080000    -2.1967270000    -0.5896810000
   15      H       2.3748080000     1.4714730000    -1.1424810000
 ----------------------------------------------------------------

   11    -629.3449296962      5.24e-07  Convergence criterion met
 Total energy in the final basis set =     -629.3449296962
        RIMP2         total energy =      -630.5350587471 a.u.

                    Orbital Energies (a.u.)
 --------------------------------------------------------------

 Alpha MOs
 -- Occupied --
-91.9762 -11.2843 -11.2518 -11.2487 -11.2401 -11.2286 -11.2068  -8.9770
 -6.6578  -6.6570  -6.6567  -1.1735  -1.0564  -0.9962  -0.9433  -0.8794
 -0.7545  -0.7288  -0.6421  -0.5941  -0.5789  -0.5683  -0.5517  -0.5451
 -0.5180  -0.4747  -0.4530  -0.4327  -0.3341  -0.2979

          Ground-State Mulliken Net Atomic Charges

     Atom                 Charge (a.u.)
  ----------------------------------------
      1 C                    -0.123563
      2 C                    -0.092245
      3 C                    -0.027951
      4 H                     0.185237
      5 C                    -0.175999
      6 S                     0.011793
      7 C                    -0.268740
      8 H                     0.102106
      9 H                     0.106559
     10 H                     0.103869
     11 C                    -0.382897
     12 H                     0.107382
     13 H                     0.134559
     14 H                     0.120438
     15 H                     0.199452
  ----------------------------------------
  Sum of atomic charges =     0.000000

                    Cartesian Multipole Moments
 -----------------------------------------------------------------
    Charge (ESU x 10^10)
                -0.0000
    Dipole Moment (Debye)
         X       2.2212      Y       0.2687      Z       1.3616
       Tot       2.6191
    Quadrupole Moments (Debye-Ang)
        XX     -47.6616     XY       5.1602     YY     -50.0493
        XZ      -0.5829     YZ       0.4980     ZZ     -47.7733

 Total job time:  174.90s(wall), 174.15s(cpu)
        *  Thank you very much for using Q-Chem.  Have a nice day.  *
