 Q-Chem 5.4, Q-Chem, Inc., Pleasanton, CA (2021)
 Q-Chem 5.4.0 for Intel X86 EM64T Linux

User input:
--------------------------------------------------------------
$molecule
0 1
C	-0.233421	-0.535395	0.019710
C	0.061979	0.276105	1.119110
C	0.535279	1.576505	0.796410
H	-0.064121	-0.070395	2.155810
C	0.610779	1.783905	-0.592790
S	0.088879	0.350205	-1.467090
C	0.907379	2.598705	1.834310
H	0.761779	2.198705	2.856410
H	0.292579	3.518705	1.745910
H	1.969779	2.908305	1.745910
C	-0.233421	-1.976095	0.019710
H	-0.045721	-1.976295	-1.043890
H	-1.040121	-2.679895	-0.122590
H	0.699279	-2.494995	0.184210
H	0.935479	2.675905	-1.141890
$end

$rem
JOBTYPE		SP
EXCHANGE	HF
CORRELATION	pRIMP2
BASIS		cc-pvtz
METHOD		rimp2
AUX_BASIS	rimp2-cc-pvtz
SOLVENT_METHOD	PCM
PURECART	11111
SYMMETRY	false
MEM_TOTAL	110000
SCF_CONVERGENCE = 6
THRESH=10
$end

$solvent
dielectric 4.90
$end
--------------------------------------------------------------

   10    -629.4128793807      5.41e-07  Convergence criterion met
 Total energy in the final basis set =     -629.4128793807
        RIMP2         total energy =      -630.5923601072 a.u.
 Total job time:  158.12s(wall), 156.19s(cpu)
        *  Thank you very much for using Q-Chem.  Have a nice day.  *
 Q-Chem 5.4, Q-Chem, Inc., Pleasanton, CA (2021)
 Q-Chem 5.4.0 for Intel X86 EM64T Linux

User input:
--------------------------------------------------------------
$molecule
0 1
C	-0.233421	-0.535395	0.019710
C	0.061979	0.276105	1.119110
C	0.535279	1.576505	0.796410
H	-0.064121	-0.070395	2.155810
C	0.610779	1.783905	-0.592790
S	0.088879	0.350205	-1.467090
C	0.907379	2.598705	1.834310
H	0.761779	2.198705	2.856410
H	0.292579	3.518705	1.745910
H	1.969779	2.908305	1.745910
C	-0.233421	-1.976095	0.019710
H	-0.045721	-1.976295	-1.043890
H	-1.040121	-2.679895	-0.122590
H	0.699279	-2.494995	0.184210
H	0.935479	2.675905	-1.141890
$end

$rem
JOBTYPE		SP
EXCHANGE	HF
CORRELATION	pRIMP2
BASIS		cc-pvtz
METHOD		rimp2
AUX_BASIS	rimp2-cc-pvtz
SOLVENT_METHOD	PCM
PURECART	11111
SYMMETRY	false
MEM_TOTAL	110000
SCF_CONVERGENCE = 6
THRESH=10
$end

$solvent
dielectric 4.90
$end
--------------------------------------------------------------

             Standard Nuclear Orientation (Angstroms)
    I     Atom           X                Y                Z
 ----------------------------------------------------------------
    1      C      -0.2334210000    -0.5353950000     0.0197100000
    2      C       0.0619790000     0.2761050000     1.1191100000
    3      C       0.5352790000     1.5765050000     0.7964100000
    4      H      -0.0641210000    -0.0703950000     2.1558100000
    5      C       0.6107790000     1.7839050000    -0.5927900000
    6      S       0.0888790000     0.3502050000    -1.4670900000
    7      C       0.9073790000     2.5987050000     1.8343100000
    8      H       0.7617790000     2.1987050000     2.8564100000
    9      H       0.2925790000     3.5187050000     1.7459100000
   10      H       1.9697790000     2.9083050000     1.7459100000
   11      C      -0.2334210000    -1.9760950000     0.0197100000
   12      H      -0.0457210000    -1.9762950000    -1.0438900000
   13      H      -1.0401210000    -2.6798950000    -0.1225900000
   14      H       0.6992790000    -2.4949950000     0.1842100000
   15      H       0.9354790000     2.6759050000    -1.1418900000
 ----------------------------------------------------------------

   10    -629.4128793807      5.41e-07  Convergence criterion met
 Total energy in the final basis set =     -629.4128793807
        RIMP2         total energy =      -630.5923601072 a.u.

                    Orbital Energies (a.u.)
 --------------------------------------------------------------

 Alpha MOs
 -- Occupied --
-91.9794 -11.2724 -11.2597 -11.2471 -11.2312 -11.2270 -11.2148  -8.9794
 -6.6603  -6.6598  -6.6592  -1.1622  -1.0553  -0.9949  -0.9459  -0.8811
 -0.7486  -0.7193  -0.6471  -0.5915  -0.5760  -0.5656  -0.5530  -0.5476
 -0.5098  -0.4839  -0.4646  -0.4433  -0.3378  -0.3034

          Ground-State Mulliken Net Atomic Charges

     Atom                 Charge (a.u.)
  ----------------------------------------
      1 C                     0.041453
      2 C                    -0.268426
      3 C                     0.047120
      4 H                     0.178964
      5 C                    -0.256520
      6 S                    -0.003216
      7 C                    -0.272107
      8 H                     0.101937
      9 H                     0.107027
     10 H                     0.106504
     11 C                    -0.367586
     12 H                     0.115557
     13 H                     0.143740
     14 H                     0.130228
     15 H                     0.195325
  ----------------------------------------
  Sum of atomic charges =     0.000000

                    Cartesian Multipole Moments
 -----------------------------------------------------------------
    Charge (ESU x 10^10)
                -0.0000
    Dipole Moment (Debye)
         X       0.6941      Y       0.0593      Z       0.8879
       Tot       1.1286
    Quadrupole Moments (Debye-Ang)
        XX     -52.8242     XY       2.7032     YY     -43.4171
        XZ       0.2881     YZ       1.4536     ZZ     -48.7347

 Total job time:  155.99s(wall), 154.70s(cpu)
        *  Thank you very much for using Q-Chem.  Have a nice day.  *
