 Q-Chem 5.4, Q-Chem, Inc., Pleasanton, CA (2021)
 Q-Chem 5.4.0 for Intel X86 EM64T Linux

User input:
--------------------------------------------------------------
$molecule
0 1
C	-0.284767	-0.512746	0.010543
C	0.080233	0.269954	1.109943
C	0.665133	1.524154	0.787243
H	-0.075667	-0.064346	2.146643
C	0.758433	1.724154	-0.601957
S	0.113533	0.341354	-1.476257
C	1.124833	2.509954	1.825143
H	0.944933	2.124254	2.847243
H	0.592533	3.480154	1.736743
H	2.210133	2.725854	1.736743
C	-0.284767	-1.953446	0.010543
H	-0.824867	-1.953146	0.945743
H	-0.994167	-2.657246	-0.399057
H	0.535433	-2.472346	0.484143
H	1.159533	2.584454	-1.151057
$end

$rem
JOBTYPE		SP
EXCHANGE	HF
CORRELATION	pRIMP2
BASIS		cc-pvtz
METHOD		rimp2
AUX_BASIS	rimp2-cc-pvtz
SOLVENT_METHOD	PCM
PURECART	11111
SYMMETRY	false
MEM_TOTAL	110000
SCF_CONVERGENCE = 6
THRESH=10
$end

$solvent
dielectric 4.90
$end
--------------------------------------------------------------

             Standard Nuclear Orientation (Angstroms)
    I     Atom           X                Y                Z
 ----------------------------------------------------------------
    1      C      -0.2847670000    -0.5127460000     0.0105430000
    2      C       0.0802330000     0.2699540000     1.1099430000
    3      C       0.6651330000     1.5241540000     0.7872430000
    4      H      -0.0756670000    -0.0643460000     2.1466430000
    5      C       0.7584330000     1.7241540000    -0.6019570000
    6      S       0.1135330000     0.3413540000    -1.4762570000
    7      C       1.1248330000     2.5099540000     1.8251430000
    8      H       0.9449330000     2.1242540000     2.8472430000
    9      H       0.5925330000     3.4801540000     1.7367430000
   10      H       2.2101330000     2.7258540000     1.7367430000
   11      C      -0.2847670000    -1.9534460000     0.0105430000
   12      H      -0.8248670000    -1.9531460000     0.9457430000
   13      H      -0.9941670000    -2.6572460000    -0.3990570000
   14      H       0.5354330000    -2.4723460000     0.4841430000
   15      H       1.1595330000     2.5844540000    -1.1510570000
 ----------------------------------------------------------------

   10    -629.4128339642      5.20e-07  Convergence criterion met
 Total energy in the final basis set =     -629.4128339642
        RIMP2         total energy =      -630.5934843101 a.u.

                    Orbital Energies (a.u.)
 --------------------------------------------------------------

 Alpha MOs
 -- Occupied --
-91.9739 -11.2741 -11.2592 -11.2477 -11.2355 -11.2276 -11.2156  -8.9742
 -6.6551  -6.6545  -6.6540  -1.1622  -1.0541  -0.9991  -0.9390  -0.8842
 -0.7428  -0.7240  -0.6467  -0.5912  -0.5780  -0.5659  -0.5590  -0.5425
 -0.5118  -0.4866  -0.4646  -0.4370  -0.3376  -0.2998

          Ground-State Mulliken Net Atomic Charges

     Atom                 Charge (a.u.)
  ----------------------------------------
      1 C                     0.034157
      2 C                    -0.273495
      3 C                     0.040621
      4 H                     0.177825
      5 C                    -0.250332
      6 S                    -0.003203
      7 C                    -0.271430
      8 H                     0.101280
      9 H                     0.106963
     10 H                     0.107005
     11 C                    -0.370642
     12 H                     0.121082
     13 H                     0.152113
     14 H                     0.135360
     15 H                     0.192696
  ----------------------------------------
  Sum of atomic charges =     0.000000

                    Cartesian Multipole Moments
 -----------------------------------------------------------------
    Charge (ESU x 10^10)
                -0.0000
    Dipole Moment (Debye)
         X       0.3588      Y      -0.1071      Z       2.1146
       Tot       2.1475
    Quadrupole Moments (Debye-Ang)
        XX     -52.1975     XY       4.2743     YY     -43.9026
        XZ       0.2261     YZ      -0.8604     ZZ     -48.7852

 Total job time:  157.00s(wall), 155.37s(cpu)
        *  Thank you very much for using Q-Chem.  Have a nice day.  *
