 Q-Chem 5.4, Q-Chem, Inc., Pleasanton, CA (2021)
 Q-Chem 5.4.0 for Intel X86 EM64T Linux

User input:
--------------------------------------------------------------
$molecule
0 1
C	-0.174455	-0.553189	0.019788
C	0.049045	0.281011	1.119188
C	0.407245	1.617711	0.796488
H	-0.046355	-0.075289	2.155888
C	0.464445	1.830811	-0.592712
S	0.069445	0.357111	-1.467012
C	0.688845	2.668411	1.834388
H	0.578645	2.257311	2.856488
H	-0.003755	3.531411	1.745988
H	1.720145	3.069411	1.745988
C	-0.174455	-1.993889	0.019788
H	-0.543755	-1.994089	-0.995112
H	-0.944255	-2.697689	0.299888
H	0.715545	-2.512789	-0.304112
H	0.710145	2.747711	-1.141812
$end

$rem
JOBTYPE		SP
EXCHANGE	HF
CORRELATION	pRIMP2
BASIS		cc-pvtz
METHOD		rimp2
AUX_BASIS	rimp2-cc-pvtz
SOLVENT_METHOD	PCM
PURECART	11111
SYMMETRY	false
MEM_TOTAL	110000
SCF_CONVERGENCE = 6
THRESH=10
$end

$solvent
dielectric 4.90
$end
--------------------------------------------------------------

             Standard Nuclear Orientation (Angstroms)
    I     Atom           X                Y                Z
 ----------------------------------------------------------------
    1      C      -0.1744550000    -0.5531890000     0.0197880000
    2      C       0.0490450000     0.2810110000     1.1191880000
    3      C       0.4072450000     1.6177110000     0.7964880000
    4      H      -0.0463550000    -0.0752890000     2.1558880000
    5      C       0.4644450000     1.8308110000    -0.5927120000
    6      S       0.0694450000     0.3571110000    -1.4670120000
    7      C       0.6888450000     2.6684110000     1.8343880000
    8      H       0.5786450000     2.2573110000     2.8564880000
    9      H      -0.0037550000     3.5314110000     1.7459880000
   10      H       1.7201450000     3.0694110000     1.7459880000
   11      C      -0.1744550000    -1.9938890000     0.0197880000
   12      H      -0.5437550000    -1.9940890000    -0.9951120000
   13      H      -0.9442550000    -2.6976890000     0.2998880000
   14      H       0.7155450000    -2.5127890000    -0.3041120000
   15      H       0.7101450000     2.7477110000    -1.1418120000
 ----------------------------------------------------------------

   10    -629.4167840591      5.37e-07  Convergence criterion met
 Total energy in the final basis set =     -629.4167840591
        RIMP2         total energy =      -630.5952525678 a.u.

                    Orbital Energies (a.u.)
 --------------------------------------------------------------

 Alpha MOs
 -- Occupied --
-91.9805 -11.2741 -11.2584 -11.2471 -11.2293 -11.2268 -11.2159  -8.9804
 -6.6613  -6.6608  -6.6601  -1.1614  -1.0551  -0.9953  -0.9461  -0.8816
 -0.7478  -0.7189  -0.6476  -0.5916  -0.5751  -0.5659  -0.5536  -0.5472
 -0.5095  -0.4844  -0.4649  -0.4456  -0.3384  -0.3020

          Ground-State Mulliken Net Atomic Charges

     Atom                 Charge (a.u.)
  ----------------------------------------
      1 C                     0.036999
      2 C                    -0.260975
      3 C                     0.038915
      4 H                     0.179704
      5 C                    -0.255378
      6 S                    -0.001749
      7 C                    -0.272901
      8 H                     0.101841
      9 H                     0.106811
     10 H                     0.106756
     11 C                    -0.365761
     12 H                     0.112203
     13 H                     0.153389
     14 H                     0.125209
     15 H                     0.194937
  ----------------------------------------
  Sum of atomic charges =     0.000000

                    Cartesian Multipole Moments
 -----------------------------------------------------------------
    Charge (ESU x 10^10)
                -0.0000
    Dipole Moment (Debye)
         X       0.2049      Y       0.0117      Z       0.8949
       Tot       0.9181
    Quadrupole Moments (Debye-Ang)
        XX     -53.1519     XY       2.8398     YY     -42.7809
        XZ      -0.0748     YZ       1.3093     ZZ     -48.7911

 Total job time:  155.81s(wall), 154.55s(cpu)
        *  Thank you very much for using Q-Chem.  Have a nice day.  *
