 Q-Chem 5.4, Q-Chem, Inc., Pleasanton, CA (2021)
 Q-Chem 5.4.0 for Intel X86 EM64T Linux

User input:
--------------------------------------------------------------
$molecule
0 1
C	-0.171084	-0.553189	0.013104
C	0.052416	0.281011	1.112504
C	0.410616	1.617711	0.789804
H	-0.042984	-0.075289	2.149204
C	0.467816	1.830811	-0.599396
S	0.072816	0.357111	-1.473696
C	0.692216	2.668411	1.827704
H	0.582016	2.257311	2.849804
H	-0.000384	3.531411	1.739304
H	1.723516	3.069411	1.739304
C	-0.171084	-1.993889	0.013104
H	-1.106484	-1.994089	0.553004
H	0.238416	-2.697689	0.722604
H	-0.644684	-2.512789	-0.807096
H	0.713516	2.747711	-1.148496
$end

$rem
JOBTYPE		SP
EXCHANGE	HF
CORRELATION	pRIMP2
BASIS		cc-pvtz
METHOD		rimp2
AUX_BASIS	rimp2-cc-pvtz
SOLVENT_METHOD	PCM
PURECART	11111
SYMMETRY	false
MEM_TOTAL	110000
SCF_CONVERGENCE = 6
THRESH=10
$end

$solvent
dielectric 4.90
$end
--------------------------------------------------------------

             Standard Nuclear Orientation (Angstroms)
    I     Atom           X                Y                Z
 ----------------------------------------------------------------
    1      C      -0.1710840000    -0.5531890000     0.0131040000
    2      C       0.0524160000     0.2810110000     1.1125040000
    3      C       0.4106160000     1.6177110000     0.7898040000
    4      H      -0.0429840000    -0.0752890000     2.1492040000
    5      C       0.4678160000     1.8308110000    -0.5993960000
    6      S       0.0728160000     0.3571110000    -1.4736960000
    7      C       0.6922160000     2.6684110000     1.8277040000
    8      H       0.5820160000     2.2573110000     2.8498040000
    9      H      -0.0003840000     3.5314110000     1.7393040000
   10      H       1.7235160000     3.0694110000     1.7393040000
   11      C      -0.1710840000    -1.9938890000     0.0131040000
   12      H      -1.1064840000    -1.9940890000     0.5530040000
   13      H       0.2384160000    -2.6976890000     0.7226040000
   14      H      -0.6446840000    -2.5127890000    -0.8070960000
   15      H       0.7135160000     2.7477110000    -1.1484960000
 ----------------------------------------------------------------

   10    -629.4179619782      6.07e-07  Convergence criterion met
 Total energy in the final basis set =     -629.4179619782
        RIMP2         total energy =      -630.5960024040 a.u.

                    Orbital Energies (a.u.)
 --------------------------------------------------------------

 Alpha MOs
 -- Occupied --
-91.9772 -11.2805 -11.2523 -11.2473 -11.2273 -11.2267 -11.2185  -8.9771
 -6.6580  -6.6575  -6.6569  -1.1603  -1.0548  -0.9980  -0.9411  -0.8834
 -0.7430  -0.7206  -0.6491  -0.5867  -0.5742  -0.5657  -0.5590  -0.5440
 -0.5098  -0.4923  -0.4629  -0.4503  -0.3375  -0.2914

          Ground-State Mulliken Net Atomic Charges

     Atom                 Charge (a.u.)
  ----------------------------------------
      1 C                     0.057388
      2 C                    -0.305878
      3 C                     0.050396
      4 H                     0.175619
      5 C                    -0.268074
      6 S                     0.002157
      7 C                    -0.274042
      8 H                     0.101253
      9 H                     0.107085
     10 H                     0.107238
     11 C                    -0.376583
     12 H                     0.136259
     13 H                     0.158906
     14 H                     0.136379
     15 H                     0.191896
  ----------------------------------------
  Sum of atomic charges =     0.000000

                    Cartesian Multipole Moments
 -----------------------------------------------------------------
    Charge (ESU x 10^10)
                -0.0000
    Dipole Moment (Debye)
         X      -0.3028      Y      -0.4707      Z       1.7903
       Tot       1.8757
    Quadrupole Moments (Debye-Ang)
        XX     -53.4575     XY       3.5287     YY     -42.6375
        XZ       0.2778     YZ      -0.5346     ZZ     -48.5815

 Total job time:  155.28s(wall), 154.47s(cpu)
        *  Thank you very much for using Q-Chem.  Have a nice day.  *
