 Q-Chem 5.4, Q-Chem, Inc., Pleasanton, CA (2021)
 Q-Chem 5.4.0 for Intel X86 EM64T Linux

User input:
--------------------------------------------------------------
$molecule
0 1
C	-0.433842	-0.417597	0.019394
C	0.121258	0.243903	1.118794
C	1.010858	1.304103	0.796094
H	-0.115742	-0.038597	2.155494
C	1.152758	1.473103	-0.593106
S	0.171958	0.304303	-1.467406
C	1.710058	2.137303	1.833994
H	1.436458	1.811303	2.856094
H	1.447058	3.212103	1.745594
H	2.814258	2.064903	1.745594
C	-0.433842	-1.858297	0.019394
H	-0.803142	-1.857997	-0.995506
H	0.335958	-2.562097	-0.260706
H	-1.323842	-2.377197	0.343294
H	1.762858	2.200203	-1.142206
$end

$rem
JOBTYPE		SP
EXCHANGE	HF
CORRELATION	pRIMP2
BASIS		cc-pvtz
METHOD		rimp2
AUX_BASIS	rimp2-cc-pvtz
SOLVENT_METHOD	PCM
PURECART	11111
SYMMETRY	false
MEM_TOTAL	110000
SCF_CONVERGENCE = 6
THRESH=10
$end

$solvent
dielectric 4.90
$end
--------------------------------------------------------------

             Standard Nuclear Orientation (Angstroms)
    I     Atom           X                Y                Z
 ----------------------------------------------------------------
    1      C      -0.4338420000    -0.4175970000     0.0193940000
    2      C       0.1212580000     0.2439030000     1.1187940000
    3      C       1.0108580000     1.3041030000     0.7960940000
    4      H      -0.1157420000    -0.0385970000     2.1554940000
    5      C       1.1527580000     1.4731030000    -0.5931060000
    6      S       0.1719580000     0.3043030000    -1.4674060000
    7      C       1.7100580000     2.1373030000     1.8339940000
    8      H       1.4364580000     1.8113030000     2.8560940000
    9      H       1.4470580000     3.2121030000     1.7455940000
   10      H       2.8142580000     2.0649030000     1.7455940000
   11      C      -0.4338420000    -1.8582970000     0.0193940000
   12      H      -0.8031420000    -1.8579970000    -0.9955060000
   13      H       0.3359580000    -2.5620970000    -0.2607060000
   14      H      -1.3238420000    -2.3771970000     0.3432940000
   15      H       1.7628580000     2.2002030000    -1.1422060000
 ----------------------------------------------------------------

   10    -629.3867942343      7.71e-07  Convergence criterion met
 Total energy in the final basis set =     -629.3867942343
        RIMP2         total energy =      -630.5717188492 a.u.

                    Orbital Energies (a.u.)
 --------------------------------------------------------------

 Alpha MOs
 -- Occupied --
-91.9783 -11.2698 -11.2585 -11.2478 -11.2391 -11.2276 -11.2106  -8.9786
 -6.6595  -6.6588  -6.6583  -1.1655  -1.0545  -0.9949  -0.9450  -0.8809
 -0.7505  -0.7227  -0.6448  -0.5882  -0.5775  -0.5707  -0.5509  -0.5465
 -0.5156  -0.4709  -0.4598  -0.4423  -0.3361  -0.3035

          Ground-State Mulliken Net Atomic Charges

     Atom                 Charge (a.u.)
  ----------------------------------------
      1 C                    -0.039248
      2 C                    -0.203253
      3 C                     0.023291
      4 H                     0.180202
      5 C                    -0.225179
      6 S                     0.004354
      7 C                    -0.270028
      8 H                     0.101990
      9 H                     0.106718
     10 H                     0.105242
     11 C                    -0.357541
     12 H                     0.108014
     13 H                     0.146695
     14 H                     0.122545
     15 H                     0.196199
  ----------------------------------------
  Sum of atomic charges =     0.000000

                    Cartesian Multipole Moments
 -----------------------------------------------------------------
    Charge (ESU x 10^10)
                -0.0000
    Dipole Moment (Debye)
         X       1.1947      Y       0.3461      Z       1.0750
       Tot       1.6440
    Quadrupole Moments (Debye-Ang)
        XX     -50.3076     XY       4.8183     YY     -46.4897
        XZ      -0.0879     YZ       1.0428     ZZ     -48.4378

 Total job time:  157.94s(wall), 155.59s(cpu)
        *  Thank you very much for using Q-Chem.  Have a nice day.  *
