 Q-Chem 5.4, Q-Chem, Inc., Pleasanton, CA (2021)
 Q-Chem 5.4.0 for Intel X86 EM64T Linux

User input:
--------------------------------------------------------------
$molecule
0 1
C	-0.587194	-0.237127	0.019910
C	0.160706	0.194673	1.119310
C	1.359206	0.886573	0.796610
H	-0.158694	0.010273	2.156010
C	1.550306	0.996873	-0.592590
S	0.229006	0.234073	-1.466890
C	2.301306	1.430473	1.834510
H	1.932606	1.217573	2.856610
H	2.421706	2.530373	1.746110
H	3.314106	0.984673	1.746110
C	-0.587194	-1.677827	0.019910
H	-0.774594	-1.678027	-1.043690
H	-1.393994	-2.381627	0.162110
H	0.345506	-2.196727	-0.144590
H	2.372406	1.471473	-1.141690
$end

$rem
JOBTYPE		SP
EXCHANGE	HF
CORRELATION	pRIMP2
BASIS		cc-pvtz
METHOD		rimp2
AUX_BASIS	rimp2-cc-pvtz
SOLVENT_METHOD	PCM
PURECART	11111
SYMMETRY	false
MEM_TOTAL	110000
SCF_CONVERGENCE = 6
THRESH=10
$end

$solvent
dielectric 4.90
$end
--------------------------------------------------------------

             Standard Nuclear Orientation (Angstroms)
    I     Atom           X                Y                Z
 ----------------------------------------------------------------
    1      C      -0.5871940000    -0.2371270000     0.0199100000
    2      C       0.1607060000     0.1946730000     1.1193100000
    3      C       1.3592060000     0.8865730000     0.7966100000
    4      H      -0.1586940000     0.0102730000     2.1560100000
    5      C       1.5503060000     0.9968730000    -0.5925900000
    6      S       0.2290060000     0.2340730000    -1.4668900000
    7      C       2.3013060000     1.4304730000     1.8345100000
    8      H       1.9326060000     1.2175730000     2.8566100000
    9      H       2.4217060000     2.5303730000     1.7461100000
   10      H       3.3141060000     0.9846730000     1.7461100000
   11      C      -0.5871940000    -1.6778270000     0.0199100000
   12      H      -0.7745940000    -1.6780270000    -1.0436900000
   13      H      -1.3939940000    -2.3816270000     0.1621100000
   14      H       0.3455060000    -2.1967270000    -0.1445900000
   15      H       2.3724060000     1.4714730000    -1.1416900000
 ----------------------------------------------------------------

   11    -629.3460907075      4.28e-07  Convergence criterion met
 Total energy in the final basis set =     -629.3460907075
        RIMP2         total energy =      -630.5364648356 a.u.

                    Orbital Energies (a.u.)
 --------------------------------------------------------------

 Alpha MOs
 -- Occupied --
-91.9753 -11.2847 -11.2527 -11.2479 -11.2415 -11.2286 -11.2078  -8.9765
 -6.6573  -6.6564  -6.6561  -1.1751  -1.0580  -0.9957  -0.9441  -0.8779
 -0.7564  -0.7284  -0.6439  -0.5946  -0.5804  -0.5667  -0.5514  -0.5469
 -0.5179  -0.4673  -0.4501  -0.4401  -0.3294  -0.3074

          Ground-State Mulliken Net Atomic Charges

     Atom                 Charge (a.u.)
  ----------------------------------------
      1 C                    -0.113171
      2 C                    -0.103487
      3 C                    -0.021881
      4 H                     0.183807
      5 C                    -0.182357
      6 S                     0.010921
      7 C                    -0.268837
      8 H                     0.102270
      9 H                     0.106611
     10 H                     0.103581
     11 C                    -0.361556
     12 H                     0.109417
     13 H                     0.126307
     14 H                     0.109020
     15 H                     0.199356
  ----------------------------------------
  Sum of atomic charges =     0.000000

                    Cartesian Multipole Moments
 -----------------------------------------------------------------
    Charge (ESU x 10^10)
                -0.0000
    Dipole Moment (Debye)
         X       2.4228      Y       0.2688      Z       1.1793
       Tot       2.7079
    Quadrupole Moments (Debye-Ang)
        XX     -47.7982     XY       4.7025     YY     -50.1175
        XZ      -0.2050     YZ       0.9200     ZZ     -47.8531

 Total job time:  208.82s(wall), 176.35s(cpu)
        *  Thank you very much for using Q-Chem.  Have a nice day.  *
