 Q-Chem 5.4, Q-Chem, Inc., Pleasanton, CA (2021)
 Q-Chem 5.4.0 for Intel X86 EM64T Linux

User input:
--------------------------------------------------------------
$molecule
0 1
C	-0.284017	-0.512746	0.010946
C	0.080983	0.269954	1.110346
C	0.665883	1.524154	0.787646
H	-0.074917	-0.064346	2.147046
C	0.759183	1.724154	-0.601554
S	0.114283	0.341354	-1.475854
C	1.125583	2.509954	1.825546
H	0.945683	2.124254	2.847646
H	0.593283	3.480154	1.737146
H	2.210883	2.725854	1.737146
C	-0.284017	-1.953446	0.010946
H	-0.978317	-1.953146	0.838246
H	-0.911517	-2.657246	-0.515654
H	0.441583	-2.472346	0.619746
H	1.160283	2.584454	-1.150654
$end

$rem
JOBTYPE		SP
EXCHANGE	HF
CORRELATION	pRIMP2
BASIS		cc-pvtz
METHOD		rimp2
AUX_BASIS	rimp2-cc-pvtz
SOLVENT_METHOD	PCM
PURECART	11111
SYMMETRY	false
MEM_TOTAL	110000
SCF_CONVERGENCE = 6
THRESH=10
$end

$solvent
dielectric 4.90
$end
--------------------------------------------------------------

             Standard Nuclear Orientation (Angstroms)
    I     Atom           X                Y                Z
 ----------------------------------------------------------------
    1      C      -0.2840170000    -0.5127460000     0.0109460000
    2      C       0.0809830000     0.2699540000     1.1103460000
    3      C       0.6658830000     1.5241540000     0.7876460000
    4      H      -0.0749170000    -0.0643460000     2.1470460000
    5      C       0.7591830000     1.7241540000    -0.6015540000
    6      S       0.1142830000     0.3413540000    -1.4758540000
    7      C       1.1255830000     2.5099540000     1.8255460000
    8      H       0.9456830000     2.1242540000     2.8476460000
    9      H       0.5932830000     3.4801540000     1.7371460000
   10      H       2.2108830000     2.7258540000     1.7371460000
   11      C      -0.2840170000    -1.9534460000     0.0109460000
   12      H      -0.9783170000    -1.9531460000     0.8382460000
   13      H      -0.9115170000    -2.6572460000    -0.5156540000
   14      H       0.4415830000    -2.4723460000     0.6197460000
   15      H       1.1602830000     2.5844540000    -1.1506540000
 ----------------------------------------------------------------

   10    -629.4117019514      5.34e-07  Convergence criterion met
 Total energy in the final basis set =     -629.4117019514
        RIMP2         total energy =      -630.5923636370 a.u.

                    Orbital Energies (a.u.)
 --------------------------------------------------------------

 Alpha MOs
 -- Occupied --
-91.9742 -11.2753 -11.2576 -11.2477 -11.2339 -11.2274 -11.2160  -8.9744
 -6.6554  -6.6547  -6.6542  -1.1619  -1.0542  -0.9988  -0.9393  -0.8840
 -0.7428  -0.7230  -0.6466  -0.5905  -0.5773  -0.5660  -0.5588  -0.5429
 -0.5116  -0.4888  -0.4634  -0.4394  -0.3375  -0.2967

          Ground-State Mulliken Net Atomic Charges

     Atom                 Charge (a.u.)
  ----------------------------------------
      1 C                     0.037954
      2 C                    -0.280902
      3 C                     0.042342
      4 H                     0.177722
      5 C                    -0.253210
      6 S                    -0.002017
      7 C                    -0.271997
      8 H                     0.101246
      9 H                     0.106999
     10 H                     0.107023
     11 C                    -0.376649
     12 H                     0.126304
     13 H                     0.154597
     14 H                     0.138474
     15 H                     0.192114
  ----------------------------------------
  Sum of atomic charges =     0.000000

                    Cartesian Multipole Moments
 -----------------------------------------------------------------
    Charge (ESU x 10^10)
                -0.0000
    Dipole Moment (Debye)
         X       0.2181      Y      -0.2096      Z       2.0486
       Tot       2.0708
    Quadrupole Moments (Debye-Ang)
        XX     -52.2517     XY       4.4847     YY     -43.8677
        XZ       0.2982     YZ      -0.7015     ZZ     -48.7125

 Total job time:  157.44s(wall), 155.66s(cpu)
        *  Thank you very much for using Q-Chem.  Have a nice day.  *
