 Q-Chem 5.4, Q-Chem, Inc., Pleasanton, CA (2021)
 Q-Chem 5.4.0 for Intel X86 EM64T Linux

User input:
--------------------------------------------------------------
$molecule
0 1
C	-0.290253	-0.512746	0.011685
C	0.074747	0.269954	1.111085
C	0.659647	1.524154	0.788385
H	-0.081153	-0.064346	2.147785
C	0.752947	1.724154	-0.600815
S	0.108047	0.341354	-1.475115
C	1.119347	2.509954	1.826285
H	0.939447	2.124254	2.848385
H	0.587047	3.480154	1.737885
H	2.204647	2.725854	1.737885
C	-0.290253	-1.953446	0.011685
H	0.403847	-1.953146	0.839085
H	-0.917853	-2.657246	0.538185
H	0.435247	-2.472346	-0.597115
H	1.154047	2.584454	-1.149915
$end

$rem
JOBTYPE		SP
EXCHANGE	HF
CORRELATION	pRIMP2
BASIS		cc-pvtz
METHOD		rimp2
AUX_BASIS	rimp2-cc-pvtz
SOLVENT_METHOD	PCM
PURECART	11111
SYMMETRY	false
MEM_TOTAL	110000
SCF_CONVERGENCE = 6
THRESH=10
$end

$solvent
dielectric 4.90
$end
--------------------------------------------------------------

             Standard Nuclear Orientation (Angstroms)
    I     Atom           X                Y                Z
 ----------------------------------------------------------------
    1      C      -0.2902530000    -0.5127460000     0.0116850000
    2      C       0.0747470000     0.2699540000     1.1110850000
    3      C       0.6596470000     1.5241540000     0.7883850000
    4      H      -0.0811530000    -0.0643460000     2.1477850000
    5      C       0.7529470000     1.7241540000    -0.6008150000
    6      S       0.1080470000     0.3413540000    -1.4751150000
    7      C       1.1193470000     2.5099540000     1.8262850000
    8      H       0.9394470000     2.1242540000     2.8483850000
    9      H       0.5870470000     3.4801540000     1.7378850000
   10      H       2.2046470000     2.7258540000     1.7378850000
   11      C      -0.2902530000    -1.9534460000     0.0116850000
   12      H       0.4038470000    -1.9531460000     0.8390850000
   13      H      -0.9178530000    -2.6572460000     0.5381850000
   14      H       0.4352470000    -2.4723460000    -0.5971150000
   15      H       1.1540470000     2.5844540000    -1.1499150000
 ----------------------------------------------------------------

   10    -629.4093502496      5.27e-07  Convergence criterion met
 Total energy in the final basis set =     -629.4093502496
        RIMP2         total energy =      -630.5896302622 a.u.

                    Orbital Energies (a.u.)
 --------------------------------------------------------------

 Alpha MOs
 -- Occupied --
-91.9779 -11.2775 -11.2556 -11.2474 -11.2298 -11.2272 -11.2155  -8.9777
 -6.6586  -6.6581  -6.6576  -1.1629  -1.0548  -0.9987  -0.9385  -0.8831
 -0.7429  -0.7233  -0.6476  -0.5902  -0.5752  -0.5679  -0.5578  -0.5431
 -0.5100  -0.4815  -0.4677  -0.4485  -0.3358  -0.2952

          Ground-State Mulliken Net Atomic Charges

     Atom                 Charge (a.u.)
  ----------------------------------------
      1 C                     0.035309
      2 C                    -0.261329
      3 C                     0.032979
      4 H                     0.175441
      5 C                    -0.258451
      6 S                     0.001269
      7 C                    -0.271611
      8 H                     0.101318
      9 H                     0.107308
     10 H                     0.106380
     11 C                    -0.387412
     12 H                     0.141370
     13 H                     0.146746
     14 H                     0.138058
     15 H                     0.192625
  ----------------------------------------
  Sum of atomic charges =     0.000000

                    Cartesian Multipole Moments
 -----------------------------------------------------------------
    Charge (ESU x 10^10)
                -0.0000
    Dipole Moment (Debye)
         X       1.0607      Y      -0.2825      Z       1.9725
       Tot       2.2573
    Quadrupole Moments (Debye-Ang)
        XX     -52.8262     XY       2.4648     YY     -44.0750
        XZ      -0.3043     YZ      -0.9011     ZZ     -48.5531

 Total job time:  158.44s(wall), 157.13s(cpu)
        *  Thank you very much for using Q-Chem.  Have a nice day.  *
