 Q-Chem 5.4, Q-Chem, Inc., Pleasanton, CA (2021)
 Q-Chem 5.4.0 for Intel X86 EM64T Linux

User input:
--------------------------------------------------------------
$molecule
0 1
C	-0.054655	-0.573727	0.013104
C	0.020645	0.286573	1.112504
C	0.141245	1.665273	0.789804
H	-0.011455	-0.080827	2.149204
C	0.160545	1.885073	-0.599396
S	0.027545	0.365073	-1.473696
C	0.236145	2.748873	1.827704
H	0.199045	2.324773	2.849804
H	-0.595855	3.478373	1.739304
H	1.182145	3.322873	1.739304
C	-0.054655	-2.014427	0.013104
H	-0.990055	-2.014627	0.553004
H	0.354845	-2.718227	0.722604
H	-0.528255	-2.533327	-0.807096
H	0.243245	2.830673	-1.148496
$end

$rem
JOBTYPE		SP
EXCHANGE	HF
CORRELATION	pRIMP2
BASIS		cc-pvtz
METHOD		rimp2
AUX_BASIS	rimp2-cc-pvtz
SOLVENT_METHOD	PCM
PURECART	11111
SYMMETRY	false
MEM_TOTAL	110000
SCF_CONVERGENCE = 6
THRESH=10
$end

$solvent
dielectric 4.90
$end
--------------------------------------------------------------

             Standard Nuclear Orientation (Angstroms)
    I     Atom           X                Y                Z
 ----------------------------------------------------------------
    1      C      -0.0546550000    -0.5737270000     0.0131040000
    2      C       0.0206450000     0.2865730000     1.1125040000
    3      C       0.1412450000     1.6652730000     0.7898040000
    4      H      -0.0114550000    -0.0808270000     2.1492040000
    5      C       0.1605450000     1.8850730000    -0.5993960000
    6      S       0.0275450000     0.3650730000    -1.4736960000
    7      C       0.2361450000     2.7488730000     1.8277040000
    8      H       0.1990450000     2.3247730000     2.8498040000
    9      H      -0.5958550000     3.4783730000     1.7393040000
   10      H       1.1821450000     3.3228730000     1.7393040000
   11      C      -0.0546550000    -2.0144270000     0.0131040000
   12      H      -0.9900550000    -2.0146270000     0.5530040000
   13      H       0.3548450000    -2.7182270000     0.7226040000
   14      H      -0.5282550000    -2.5333270000    -0.8070960000
   15      H       0.2432450000     2.8306730000    -1.1484960000
 ----------------------------------------------------------------

   10    -629.4229937047      6.33e-07  Convergence criterion met
 Total energy in the final basis set =     -629.4229937047
        RIMP2         total energy =      -630.5996082497 a.u.

                    Orbital Energies (a.u.)
 --------------------------------------------------------------

 Alpha MOs
 -- Occupied --
-91.9782 -11.2831 -11.2503 -11.2472 -11.2266 -11.2253 -11.2199  -8.9779
 -6.6589  -6.6583  -6.6577  -1.1600  -1.0553  -0.9981  -0.9411  -0.8833
 -0.7428  -0.7201  -0.6496  -0.5876  -0.5735  -0.5667  -0.5587  -0.5442
 -0.5084  -0.4920  -0.4650  -0.4525  -0.3375  -0.2914

          Ground-State Mulliken Net Atomic Charges

     Atom                 Charge (a.u.)
  ----------------------------------------
      1 C                     0.070511
      2 C                    -0.304150
      3 C                     0.047383
      4 H                     0.175412
      5 C                    -0.273649
      6 S                     0.000907
      7 C                    -0.275296
      8 H                     0.101224
      9 H                     0.107178
     10 H                     0.107316
     11 C                    -0.381698
     12 H                     0.138663
     13 H                     0.156846
     14 H                     0.137107
     15 H                     0.192247
  ----------------------------------------
  Sum of atomic charges =     0.000000

                    Cartesian Multipole Moments
 -----------------------------------------------------------------
    Charge (ESU x 10^10)
                -0.0000
    Dipole Moment (Debye)
         X      -0.5358      Y      -0.5709      Z       1.7625
       Tot       1.9286
    Quadrupole Moments (Debye-Ang)
        XX     -54.0855     XY       2.1014     YY     -42.0045
        XZ       0.2488     YZ      -0.5199     ZZ     -48.6126

 Total job time:  161.49s(wall), 159.59s(cpu)
        *  Thank you very much for using Q-Chem.  Have a nice day.  *
