 Q-Chem 5.4, Q-Chem, Inc., Pleasanton, CA (2021)
 Q-Chem 5.4.0 for Intel X86 EM64T Linux

User input:
--------------------------------------------------------------
$molecule
0 1
C	-0.121370	-0.566010	0.011685
C	0.028630	0.284490	1.111085
C	0.268930	1.647390	0.788385
H	-0.035470	-0.078710	2.147785
C	0.307330	1.864690	-0.600815
S	0.042330	0.362090	-1.475115
C	0.457830	2.718590	1.826285
H	0.383930	2.299390	2.848385
H	-0.307370	3.517890	1.737885
H	1.450330	3.207890	1.737885
C	-0.121370	-2.006710	0.011685
H	0.572730	-2.006410	0.839085
H	-0.748970	-2.710510	0.538185
H	0.604130	-2.525610	-0.597115
H	0.472130	2.799390	-1.149915
$end

$rem
JOBTYPE		SP
EXCHANGE	HF
CORRELATION	pRIMP2
BASIS		cc-pvtz
METHOD		rimp2
AUX_BASIS	rimp2-cc-pvtz
SOLVENT_METHOD	PCM
PURECART	11111
SYMMETRY	false
MEM_TOTAL	110000
SCF_CONVERGENCE = 6
THRESH=10
$end

$solvent
dielectric 4.90
$end
--------------------------------------------------------------

   10    -629.4216952931      5.55e-07  Convergence criterion met
 Total energy in the final basis set =     -629.4216952931
        RIMP2         total energy =      -630.5993033412 a.u.
 Total job time:  158.25s(wall), 155.29s(cpu)
        *  Thank you very much for using Q-Chem.  Have a nice day.  *
 Q-Chem 5.4, Q-Chem, Inc., Pleasanton, CA (2021)
 Q-Chem 5.4.0 for Intel X86 EM64T Linux

User input:
--------------------------------------------------------------
$molecule
0 1
C	-0.121370	-0.566010	0.011685
C	0.028630	0.284490	1.111085
C	0.268930	1.647390	0.788385
H	-0.035470	-0.078710	2.147785
C	0.307330	1.864690	-0.600815
S	0.042330	0.362090	-1.475115
C	0.457830	2.718590	1.826285
H	0.383930	2.299390	2.848385
H	-0.307370	3.517890	1.737885
H	1.450330	3.207890	1.737885
C	-0.121370	-2.006710	0.011685
H	0.572730	-2.006410	0.839085
H	-0.748970	-2.710510	0.538185
H	0.604130	-2.525610	-0.597115
H	0.472130	2.799390	-1.149915
$end

$rem
JOBTYPE		SP
EXCHANGE	HF
CORRELATION	pRIMP2
BASIS		cc-pvtz
METHOD		rimp2
AUX_BASIS	rimp2-cc-pvtz
SOLVENT_METHOD	PCM
PURECART	11111
SYMMETRY	false
MEM_TOTAL	110000
SCF_CONVERGENCE = 6
THRESH=10
$end

$solvent
dielectric 4.90
$end
--------------------------------------------------------------

             Standard Nuclear Orientation (Angstroms)
    I     Atom           X                Y                Z
 ----------------------------------------------------------------
    1      C      -0.1213700000    -0.5660100000     0.0116850000
    2      C       0.0286300000     0.2844900000     1.1110850000
    3      C       0.2689300000     1.6473900000     0.7883850000
    4      H      -0.0354700000    -0.0787100000     2.1477850000
    5      C       0.3073300000     1.8646900000    -0.6008150000
    6      S       0.0423300000     0.3620900000    -1.4751150000
    7      C       0.4578300000     2.7185900000     1.8262850000
    8      H       0.3839300000     2.2993900000     2.8483850000
    9      H      -0.3073700000     3.5178900000     1.7378850000
   10      H       1.4503300000     3.2078900000     1.7378850000
   11      C      -0.1213700000    -2.0067100000     0.0116850000
   12      H       0.5727300000    -2.0064100000     0.8390850000
   13      H      -0.7489700000    -2.7105100000     0.5381850000
   14      H       0.6041300000    -2.5256100000    -0.5971150000
   15      H       0.4721300000     2.7993900000    -1.1499150000
 ----------------------------------------------------------------

   10    -629.4216952931      5.55e-07  Convergence criterion met
 Total energy in the final basis set =     -629.4216952931
        RIMP2         total energy =      -630.5993033412 a.u.

                    Orbital Energies (a.u.)
 --------------------------------------------------------------

 Alpha MOs
 -- Occupied --
-91.9776 -11.2809 -11.2531 -11.2472 -11.2285 -11.2270 -11.2178  -8.9774
 -6.6583  -6.6578  -6.6572  -1.1609  -1.0548  -0.9988  -0.9399  -0.8836
 -0.7424  -0.7220  -0.6491  -0.5900  -0.5748  -0.5667  -0.5594  -0.5431
 -0.5089  -0.4867  -0.4676  -0.4477  -0.3369  -0.2963

          Ground-State Mulliken Net Atomic Charges

     Atom                 Charge (a.u.)
  ----------------------------------------
      1 C                     0.061259
      2 C                    -0.273662
      3 C                     0.034294
      4 H                     0.176129
      5 C                    -0.263187
      6 S                    -0.004028
      7 C                    -0.273903
      8 H                     0.101146
      9 H                     0.107298
     10 H                     0.107022
     11 C                    -0.386388
     12 H                     0.135751
     13 H                     0.149780
     14 H                     0.135787
     15 H                     0.192702
  ----------------------------------------
  Sum of atomic charges =     0.000000

                    Cartesian Multipole Moments
 -----------------------------------------------------------------
    Charge (ESU x 10^10)
                -0.0000
    Dipole Moment (Debye)
         X       0.6823      Y      -0.3579      Z       1.9621
       Tot       2.1079
    Quadrupole Moments (Debye-Ang)
        XX     -53.8501     XY       0.5625     YY     -42.4425
        XZ      -0.2868     YZ      -0.8728     ZZ     -48.7069

 Total job time:  158.70s(wall), 157.02s(cpu)
        *  Thank you very much for using Q-Chem.  Have a nice day.  *
