 Q-Chem 5.4, Q-Chem, Inc., Pleasanton, CA (2021)
 Q-Chem 5.4.0 for Intel X86 EM64T Linux

User input:
--------------------------------------------------------------
$molecule
0 1
C	-0.172896	-0.553191	0.010946
C	0.050604	0.281009	1.110346
C	0.408804	1.617709	0.787646
H	-0.044796	-0.075291	2.147046
C	0.466004	1.830809	-0.601554
S	0.071004	0.357109	-1.475854
C	0.690404	2.668409	1.825546
H	0.580204	2.257309	2.847646
H	-0.002196	3.531409	1.737146
H	1.721704	3.069409	1.737146
C	-0.172896	-1.993891	0.010946
H	-0.867196	-1.993591	0.838246
H	-0.800396	-2.697691	-0.515654
H	0.552704	-2.512791	0.619746
H	0.711704	2.747709	-1.150654
$end

$rem
JOBTYPE		SP
EXCHANGE	HF
CORRELATION	pRIMP2
BASIS		cc-pvtz
METHOD		rimp2
AUX_BASIS	rimp2-cc-pvtz
SOLVENT_METHOD	PCM
PURECART	11111
SYMMETRY	false
MEM_TOTAL	110000
SCF_CONVERGENCE = 6
THRESH=10
$end

$solvent
dielectric 4.90
$end
--------------------------------------------------------------

             Standard Nuclear Orientation (Angstroms)
    I     Atom           X                Y                Z
 ----------------------------------------------------------------
    1      C      -0.1728960000    -0.5531910000     0.0109460000
    2      C       0.0506040000     0.2810090000     1.1103460000
    3      C       0.4088040000     1.6177090000     0.7876460000
    4      H      -0.0447960000    -0.0752910000     2.1470460000
    5      C       0.4660040000     1.8308090000    -0.6015540000
    6      S       0.0710040000     0.3571090000    -1.4758540000
    7      C       0.6904040000     2.6684090000     1.8255460000
    8      H       0.5802040000     2.2573090000     2.8476460000
    9      H      -0.0021960000     3.5314090000     1.7371460000
   10      H       1.7217040000     3.0694090000     1.7371460000
   11      C      -0.1728960000    -1.9938910000     0.0109460000
   12      H      -0.8671960000    -1.9935910000     0.8382460000
   13      H      -0.8003960000    -2.6976910000    -0.5156540000
   14      H       0.5527040000    -2.5127910000     0.6197460000
   15      H       0.7117040000     2.7477090000    -1.1506540000
 ----------------------------------------------------------------

   10    -629.4198191098      5.49e-07  Convergence criterion met
 Total energy in the final basis set =     -629.4198191098
        RIMP2         total energy =      -630.5984087048 a.u.

                    Orbital Energies (a.u.)
 --------------------------------------------------------------

 Alpha MOs
 -- Occupied --
-91.9752 -11.2792 -11.2545 -11.2474 -11.2312 -11.2272 -11.2175  -8.9753
 -6.6562  -6.6556  -6.6551  -1.1608  -1.0545  -0.9989  -0.9398  -0.8840
 -0.7424  -0.7220  -0.6476  -0.5912  -0.5762  -0.5668  -0.5590  -0.5429
 -0.5102  -0.4891  -0.4648  -0.4429  -0.3375  -0.2966

          Ground-State Mulliken Net Atomic Charges

     Atom                 Charge (a.u.)
  ----------------------------------------
      1 C                     0.057410
      2 C                    -0.288525
      3 C                     0.043638
      4 H                     0.177349
      5 C                    -0.261621
      6 S                    -0.003814
      7 C                    -0.273759
      8 H                     0.101127
      9 H                     0.107083
     10 H                     0.107340
     11 C                    -0.379518
     12 H                     0.128608
     13 H                     0.158311
     14 H                     0.134356
     15 H                     0.192016
  ----------------------------------------
  Sum of atomic charges =     0.000000

                    Cartesian Multipole Moments
 -----------------------------------------------------------------
    Charge (ESU x 10^10)
                -0.0000
    Dipole Moment (Debye)
         X      -0.0817      Y      -0.3229      Z       2.0160
       Tot       2.0433
    Quadrupole Moments (Debye-Ang)
        XX     -53.2517     XY       3.3200     YY     -42.7121
        XZ       0.3155     YZ      -0.6902     ZZ     -48.7757

 Total job time:  155.23s(wall), 154.58s(cpu)
        *  Thank you very much for using Q-Chem.  Have a nice day.  *
