 Q-Chem 5.4, Q-Chem, Inc., Pleasanton, CA (2021)
 Q-Chem 5.4.0 for Intel X86 EM64T Linux

User input:
--------------------------------------------------------------
$molecule
0 1
C	-0.286121	-0.512746	0.019883
C	0.078879	0.269954	1.119283
C	0.663779	1.524154	0.796583
H	-0.077021	-0.064346	2.155983
C	0.757079	1.724154	-0.592617
S	0.112179	0.341354	-1.466917
C	1.123479	2.509954	1.834483
H	0.943579	2.124254	2.856583
H	0.591179	3.480154	1.746083
H	2.208779	2.725854	1.746083
C	-0.286121	-1.953446	0.019883
H	-0.286021	-1.953146	-1.060117
H	0.533079	-2.657246	0.019983
H	-1.233221	-2.472346	0.019883
H	1.158179	2.584454	-1.141717
$end

$rem
JOBTYPE		SP
EXCHANGE	HF
CORRELATION	pRIMP2
BASIS		cc-pvtz
METHOD		rimp2
AUX_BASIS	rimp2-cc-pvtz
SOLVENT_METHOD	PCM
PURECART	11111
SYMMETRY	false
MEM_TOTAL	110000
SCF_CONVERGENCE = 6
THRESH=10
$end

$solvent
dielectric 4.90
$end
--------------------------------------------------------------

             Standard Nuclear Orientation (Angstroms)
    I     Atom           X                Y                Z
 ----------------------------------------------------------------
    1      C      -0.2861210000    -0.5127460000     0.0198830000
    2      C       0.0788790000     0.2699540000     1.1192830000
    3      C       0.6637790000     1.5241540000     0.7965830000
    4      H      -0.0770210000    -0.0643460000     2.1559830000
    5      C       0.7570790000     1.7241540000    -0.5926170000
    6      S       0.1121790000     0.3413540000    -1.4669170000
    7      C       1.1234790000     2.5099540000     1.8344830000
    8      H       0.9435790000     2.1242540000     2.8565830000
    9      H       0.5911790000     3.4801540000     1.7460830000
   10      H       2.2087790000     2.7258540000     1.7460830000
   11      C      -0.2861210000    -1.9534460000     0.0198830000
   12      H      -0.2860210000    -1.9531460000    -1.0601170000
   13      H       0.5330790000    -2.6572460000     0.0199830000
   14      H      -1.2332210000    -2.4723460000     0.0198830000
   15      H       1.1581790000     2.5844540000    -1.1417170000
 ----------------------------------------------------------------

   10    -629.4064709754      5.34e-07  Convergence criterion met
 Total energy in the final basis set =     -629.4064709754
        RIMP2         total energy =      -630.5874435867 a.u.

                    Orbital Energies (a.u.)
 --------------------------------------------------------------

 Alpha MOs
 -- Occupied --
-91.9794 -11.2684 -11.2624 -11.2472 -11.2333 -11.2271 -11.2133  -8.9794
 -6.6603  -6.6597  -6.6592  -1.1627  -1.0549  -0.9948  -0.9460  -0.8811
 -0.7491  -0.7200  -0.6471  -0.5892  -0.5767  -0.5677  -0.5523  -0.5474
 -0.5123  -0.4776  -0.4647  -0.4422  -0.3373  -0.3045

          Ground-State Mulliken Net Atomic Charges

     Atom                 Charge (a.u.)
  ----------------------------------------
      1 C                     0.018297
      2 C                    -0.255244
      3 C                     0.042832
      4 H                     0.179527
      5 C                    -0.249443
      6 S                    -0.002072
      7 C                    -0.271837
      8 H                     0.102054
      9 H                     0.106775
     10 H                     0.106215
     11 C                    -0.356166
     12 H                     0.112857
     13 H                     0.146811
     14 H                     0.123656
     15 H                     0.195738
  ----------------------------------------
  Sum of atomic charges =     0.000000

                    Cartesian Multipole Moments
 -----------------------------------------------------------------
    Charge (ESU x 10^10)
                -0.0000
    Dipole Moment (Debye)
         X       0.7478      Y       0.1930      Z       0.9194
       Tot       1.2007
    Quadrupole Moments (Debye-Ang)
        XX     -52.2502     XY       3.2944     YY     -44.0928
        XZ       0.1624     YZ       1.3474     ZZ     -48.6866

 Total job time:  156.98s(wall), 155.72s(cpu)
        *  Thank you very much for using Q-Chem.  Have a nice day.  *
