 Q-Chem 5.4, Q-Chem, Inc., Pleasanton, CA (2021)
 Q-Chem 5.4.0 for Intel X86 EM64T Linux

User input:
--------------------------------------------------------------
$molecule
0 1
C	-0.438963	-0.417597	0.011118
C	0.116137	0.243903	1.110518
C	1.005737	1.304103	0.787818
H	-0.120863	-0.038597	2.147218
C	1.147637	1.473103	-0.601382
S	0.166837	0.304303	-1.475682
C	1.704937	2.137303	1.825718
H	1.431337	1.811303	2.847818
H	1.441937	3.212103	1.737318
H	2.809137	2.064903	1.737318
C	-0.438963	-1.858297	0.011118
H	0.100937	-1.857997	0.946518
H	-1.148463	-2.562097	0.420618
H	0.381237	-2.377197	-0.462482
H	1.757737	2.200203	-1.150482
$end

$rem
JOBTYPE		SP
EXCHANGE	HF
CORRELATION	pRIMP2
BASIS		cc-pvtz
METHOD		rimp2
AUX_BASIS	rimp2-cc-pvtz
SOLVENT_METHOD	PCM
PURECART	11111
SYMMETRY	false
MEM_TOTAL	110000
SCF_CONVERGENCE = 6
THRESH=10
$end

$solvent
dielectric 4.90
$end
--------------------------------------------------------------

             Standard Nuclear Orientation (Angstroms)
    I     Atom           X                Y                Z
 ----------------------------------------------------------------
    1      C      -0.4389630000    -0.4175970000     0.0111180000
    2      C       0.1161370000     0.2439030000     1.1105180000
    3      C       1.0057370000     1.3041030000     0.7878180000
    4      H      -0.1208630000    -0.0385970000     2.1472180000
    5      C       1.1476370000     1.4731030000    -0.6013820000
    6      S       0.1668370000     0.3043030000    -1.4756820000
    7      C       1.7049370000     2.1373030000     1.8257180000
    8      H       1.4313370000     1.8113030000     2.8478180000
    9      H       1.4419370000     3.2121030000     1.7373180000
   10      H       2.8091370000     2.0649030000     1.7373180000
   11      C      -0.4389630000    -1.8582970000     0.0111180000
   12      H       0.1009370000    -1.8579970000     0.9465180000
   13      H      -1.1484630000    -2.5620970000     0.4206180000
   14      H       0.3812370000    -2.3771970000    -0.4624820000
   15      H       1.7577370000     2.2002030000    -1.1504820000
 ----------------------------------------------------------------

   10    -629.3863425844      6.08e-07  Convergence criterion met
 Total energy in the final basis set =     -629.3863425844
        RIMP2         total energy =      -630.5718802433 a.u.

                    Orbital Energies (a.u.)
 --------------------------------------------------------------

 Alpha MOs
 -- Occupied --
-91.9766 -11.2675 -11.2639 -11.2477 -11.2370 -11.2279 -11.2107  -8.9768
 -6.6576  -6.6570  -6.6566  -1.1668  -1.0549  -0.9994  -0.9363  -0.8826
 -0.7442  -0.7273  -0.6452  -0.5912  -0.5779  -0.5680  -0.5561  -0.5430
 -0.5132  -0.4727  -0.4668  -0.4442  -0.3333  -0.2975

          Ground-State Mulliken Net Atomic Charges

     Atom                 Charge (a.u.)
  ----------------------------------------
      1 C                    -0.008567
      2 C                    -0.219552
      3 C                     0.016842
      4 H                     0.176777
      5 C                    -0.235833
      6 S                     0.006102
      7 C                    -0.269795
      8 H                     0.101279
      9 H                     0.107202
     10 H                     0.105530
     11 C                    -0.378480
     12 H                     0.134733
     13 H                     0.133239
     14 H                     0.136909
     15 H                     0.193614
  ----------------------------------------
  Sum of atomic charges =     0.000000

                    Cartesian Multipole Moments
 -----------------------------------------------------------------
    Charge (ESU x 10^10)
                -0.0000
    Dipole Moment (Debye)
         X       1.5582      Y      -0.0117      Z       2.0911
       Tot       2.6079
    Quadrupole Moments (Debye-Ang)
        XX     -50.9240     XY       3.7395     YY     -46.6658
        XZ      -0.4533     YZ      -1.0078     ZZ     -48.3509

 Total job time:  160.19s(wall), 158.41s(cpu)
        *  Thank you very much for using Q-Chem.  Have a nice day.  *
