 Q-Chem 5.4, Q-Chem, Inc., Pleasanton, CA (2021)
 Q-Chem 5.4.0 for Intel X86 EM64T Linux

User input:
--------------------------------------------------------------
$molecule
0 1
C	-0.288895	-0.512744	0.019394
C	0.076105	0.269956	1.118794
C	0.661005	1.524156	0.796094
H	-0.079795	-0.064344	2.155494
C	0.754305	1.724156	-0.593106
S	0.109405	0.341356	-1.467406
C	1.120705	2.509956	1.833994
H	0.940805	2.124256	2.856094
H	0.588405	3.480156	1.745594
H	2.206005	2.725856	1.745594
C	-0.288895	-1.953444	0.019394
H	0.080605	-1.953644	-0.995406
H	-1.058695	-2.657244	-0.260806
H	0.601105	-2.472344	0.343294
H	1.155405	2.584456	-1.142206
$end

$rem
JOBTYPE		SP
EXCHANGE	HF
CORRELATION	pRIMP2
BASIS		cc-pvtz
METHOD		rimp2
AUX_BASIS	rimp2-cc-pvtz
SOLVENT_METHOD	PCM
PURECART	11111
SYMMETRY	false
MEM_TOTAL	110000
SCF_CONVERGENCE = 6
THRESH=10
$end

$solvent
dielectric 4.90
$end
--------------------------------------------------------------

             Standard Nuclear Orientation (Angstroms)
    I     Atom           X                Y                Z
 ----------------------------------------------------------------
    1      C      -0.2888950000    -0.5127440000     0.0193940000
    2      C       0.0761050000     0.2699560000     1.1187940000
    3      C       0.6610050000     1.5241560000     0.7960940000
    4      H      -0.0797950000    -0.0643440000     2.1554940000
    5      C       0.7543050000     1.7241560000    -0.5931060000
    6      S       0.1094050000     0.3413560000    -1.4674060000
    7      C       1.1207050000     2.5099560000     1.8339940000
    8      H       0.9408050000     2.1242560000     2.8560940000
    9      H       0.5884050000     3.4801560000     1.7455940000
   10      H       2.2060050000     2.7258560000     1.7455940000
   11      C      -0.2888950000    -1.9534440000     0.0193940000
   12      H       0.0806050000    -1.9536440000    -0.9954060000
   13      H      -1.0586950000    -2.6572440000    -0.2608060000
   14      H       0.6011050000    -2.4723440000     0.3432940000
   15      H       1.1554050000     2.5844560000    -1.1422060000
 ----------------------------------------------------------------

   10    -629.4082944056      5.54e-07  Convergence criterion met
 Total energy in the final basis set =     -629.4082944056
        RIMP2         total energy =      -630.5884995004 a.u.

                    Orbital Energies (a.u.)
 --------------------------------------------------------------

 Alpha MOs
 -- Occupied --
-91.9778 -11.2719 -11.2603 -11.2470 -11.2324 -11.2271 -11.2142  -8.9781
 -6.6590  -6.6584  -6.6578  -1.1631  -1.0555  -0.9947  -0.9454  -0.8808
 -0.7488  -0.7198  -0.6466  -0.5911  -0.5767  -0.5655  -0.5523  -0.5478
 -0.5102  -0.4839  -0.4640  -0.4437  -0.3378  -0.3015

          Ground-State Mulliken Net Atomic Charges

     Atom                 Charge (a.u.)
  ----------------------------------------
      1 C                     0.035644
      2 C                    -0.271302
      3 C                     0.049051
      4 H                     0.178903
      5 C                    -0.253189
      6 S                    -0.003980
      7 C                    -0.271472
      8 H                     0.101873
      9 H                     0.107217
     10 H                     0.106323
     11 C                    -0.371139
     12 H                     0.121532
     13 H                     0.141512
     14 H                     0.134063
     15 H                     0.194966
  ----------------------------------------
  Sum of atomic charges =     0.000000

                    Cartesian Multipole Moments
 -----------------------------------------------------------------
    Charge (ESU x 10^10)
                -0.0000
    Dipole Moment (Debye)
         X       0.9514      Y       0.0227      Z       0.9291
       Tot       1.3300
    Quadrupole Moments (Debye-Ang)
        XX     -52.4739     XY       2.9944     YY     -44.0684
        XZ       0.3977     YZ       1.4452     ZZ     -48.6511

 Total job time:  158.19s(wall), 156.16s(cpu)
        *  Thank you very much for using Q-Chem.  Have a nice day.  *
