 Q-Chem 5.4, Q-Chem, Inc., Pleasanton, CA (2021)
 Q-Chem 5.4.0 for Intel X86 EM64T Linux

User input:
--------------------------------------------------------------
$molecule
0 1
C	-0.521052	-0.333972	0.019710
C	0.140548	0.221128	1.119110
C	1.200648	1.110628	0.796410
H	-0.141952	-0.015972	2.155810
C	1.369748	1.252428	-0.592790
S	0.200848	0.271728	-1.467090
C	2.033948	1.809828	1.834310
H	1.707848	1.536228	2.856410
H	1.961548	2.914028	1.745910
H	3.108748	1.546728	1.745910
C	-0.521052	-1.774672	0.019710
H	-0.333352	-1.774872	-1.043890
H	-1.327752	-2.478472	-0.122590
H	0.411648	-2.293572	0.184210
H	2.096848	1.862628	-1.141890
$end

$rem
JOBTYPE		SP
EXCHANGE	HF
CORRELATION	pRIMP2
BASIS		cc-pvtz
METHOD		rimp2
AUX_BASIS	rimp2-cc-pvtz
SOLVENT_METHOD	PCM
PURECART	11111
SYMMETRY	false
MEM_TOTAL	110000
SCF_CONVERGENCE = 6
THRESH=10
$end

$solvent
dielectric 4.90
$end
--------------------------------------------------------------

             Standard Nuclear Orientation (Angstroms)
    I     Atom           X                Y                Z
 ----------------------------------------------------------------
    1      C      -0.5210520000    -0.3339720000     0.0197100000
    2      C       0.1405480000     0.2211280000     1.1191100000
    3      C       1.2006480000     1.1106280000     0.7964100000
    4      H      -0.1419520000    -0.0159720000     2.1558100000
    5      C       1.3697480000     1.2524280000    -0.5927900000
    6      S       0.2008480000     0.2717280000    -1.4670900000
    7      C       2.0339480000     1.8098280000     1.8343100000
    8      H       1.7078480000     1.5362280000     2.8564100000
    9      H       1.9615480000     2.9140280000     1.7459100000
   10      H       3.1087480000     1.5467280000     1.7459100000
   11      C      -0.5210520000    -1.7746720000     0.0197100000
   12      H      -0.3333520000    -1.7748720000    -1.0438900000
   13      H      -1.3277520000    -2.4784720000    -0.1225900000
   14      H       0.4116480000    -2.2935720000     0.1842100000
   15      H       2.0968480000     1.8626280000    -1.1418900000
 ----------------------------------------------------------------

   10    -629.3658901360      8.50e-07  Convergence criterion met
 Total energy in the final basis set =     -629.3658901360
        RIMP2         total energy =      -630.5540772224 a.u.

                    Orbital Energies (a.u.)
 --------------------------------------------------------------

 Alpha MOs
 -- Occupied --
-91.9748 -11.2749 -11.2539 -11.2475 -11.2449 -11.2281 -11.2079  -8.9759
 -6.6567  -6.6559  -6.6555  -1.1706  -1.0570  -0.9945  -0.9444  -0.8784
 -0.7536  -0.7248  -0.6443  -0.5914  -0.5794  -0.5658  -0.5512  -0.5481
 -0.5154  -0.4683  -0.4646  -0.4375  -0.3322  -0.3039

          Ground-State Mulliken Net Atomic Charges

     Atom                 Charge (a.u.)
  ----------------------------------------
      1 C                    -0.057095
      2 C                    -0.173806
      3 C                     0.012642
      4 H                     0.180333
      5 C                    -0.212227
      6 S                     0.002615
      7 C                    -0.269034
      8 H                     0.102000
      9 H                     0.106988
     10 H                     0.104547
     11 C                    -0.368356
     12 H                     0.122951
     13 H                     0.127165
     14 H                     0.123854
     15 H                     0.197422
  ----------------------------------------
  Sum of atomic charges =     0.000000

                    Cartesian Multipole Moments
 -----------------------------------------------------------------
    Charge (ESU x 10^10)
                -0.0000
    Dipole Moment (Debye)
         X       1.9839      Y       0.2462      Z       1.0528
       Tot       2.2594
    Quadrupole Moments (Debye-Ang)
        XX     -49.2699     XY       4.4415     YY     -48.4736
        XZ       0.2061     YZ       1.2346     ZZ     -48.1309

 Total job time:  162.63s(wall), 160.86s(cpu)
        *  Thank you very much for using Q-Chem.  Have a nice day.  *
