 Q-Chem 5.4, Q-Chem, Inc., Pleasanton, CA (2021)
 Q-Chem 5.4.0 for Intel X86 EM64T Linux

User input:
--------------------------------------------------------------
$molecule
0 1
C	-0.116693	-0.566007	0.019788
C	0.033307	0.284493	1.119188
C	0.273607	1.647393	0.796488
H	-0.030793	-0.078707	2.155888
C	0.312007	1.864693	-0.592712
S	0.047007	0.362093	-1.467012
C	0.462507	2.718593	1.834388
H	0.388607	2.299393	2.856488
H	-0.302693	3.517893	1.745988
H	1.455007	3.207893	1.745988
C	-0.116693	-2.006707	0.019788
H	-0.485993	-2.006907	-0.995112
H	-0.886493	-2.710507	0.299888
H	0.773307	-2.525607	-0.304112
H	0.476807	2.799393	-1.141812
$end

$rem
JOBTYPE		SP
EXCHANGE	HF
CORRELATION	pRIMP2
BASIS		cc-pvtz
METHOD		rimp2
AUX_BASIS	rimp2-cc-pvtz
SOLVENT_METHOD	PCM
PURECART	11111
SYMMETRY	false
MEM_TOTAL	110000
SCF_CONVERGENCE = 6
THRESH=10
$end

$solvent
dielectric 4.90
$end
--------------------------------------------------------------

   10    -629.4192436950      5.48e-07  Convergence criterion met
 Total energy in the final basis set =     -629.4192436950
        RIMP2         total energy =      -630.5971106325 a.u.
 Total job time:  157.63s(wall), 155.87s(cpu)
        *  Thank you very much for using Q-Chem.  Have a nice day.  *
 Q-Chem 5.4, Q-Chem, Inc., Pleasanton, CA (2021)
 Q-Chem 5.4.0 for Intel X86 EM64T Linux

User input:
--------------------------------------------------------------
$molecule
0 1
C	-0.116693	-0.566007	0.019788
C	0.033307	0.284493	1.119188
C	0.273607	1.647393	0.796488
H	-0.030793	-0.078707	2.155888
C	0.312007	1.864693	-0.592712
S	0.047007	0.362093	-1.467012
C	0.462507	2.718593	1.834388
H	0.388607	2.299393	2.856488
H	-0.302693	3.517893	1.745988
H	1.455007	3.207893	1.745988
C	-0.116693	-2.006707	0.019788
H	-0.485993	-2.006907	-0.995112
H	-0.886493	-2.710507	0.299888
H	0.773307	-2.525607	-0.304112
H	0.476807	2.799393	-1.141812
$end

$rem
JOBTYPE		SP
EXCHANGE	HF
CORRELATION	pRIMP2
BASIS		cc-pvtz
METHOD		rimp2
AUX_BASIS	rimp2-cc-pvtz
SOLVENT_METHOD	PCM
PURECART	11111
SYMMETRY	false
MEM_TOTAL	110000
SCF_CONVERGENCE = 6
THRESH=10
$end

$solvent
dielectric 4.90
$end
--------------------------------------------------------------

             Standard Nuclear Orientation (Angstroms)
    I     Atom           X                Y                Z
 ----------------------------------------------------------------
    1      C      -0.1166930000    -0.5660070000     0.0197880000
    2      C       0.0333070000     0.2844930000     1.1191880000
    3      C       0.2736070000     1.6473930000     0.7964880000
    4      H      -0.0307930000    -0.0787070000     2.1558880000
    5      C       0.3120070000     1.8646930000    -0.5927120000
    6      S       0.0470070000     0.3620930000    -1.4670120000
    7      C       0.4625070000     2.7185930000     1.8343880000
    8      H       0.3886070000     2.2993930000     2.8564880000
    9      H      -0.3026930000     3.5178930000     1.7459880000
   10      H       1.4550070000     3.2078930000     1.7459880000
   11      C      -0.1166930000    -2.0067070000     0.0197880000
   12      H      -0.4859930000    -2.0069070000    -0.9951120000
   13      H      -0.8864930000    -2.7105070000     0.2998880000
   14      H       0.7733070000    -2.5256070000    -0.3041120000
   15      H       0.4768070000     2.7993930000    -1.1418120000
 ----------------------------------------------------------------

   10    -629.4192436950      5.48e-07  Convergence criterion met
 Total energy in the final basis set =     -629.4192436950
        RIMP2         total energy =      -630.5971106325 a.u.

                    Orbital Energies (a.u.)
 --------------------------------------------------------------

 Alpha MOs
 -- Occupied --
-91.9806 -11.2752 -11.2576 -11.2470 -11.2287 -11.2268 -11.2163  -8.9804
 -6.6613  -6.6608  -6.6602  -1.1610  -1.0552  -0.9953  -0.9462  -0.8817
 -0.7476  -0.7186  -0.6480  -0.5915  -0.5751  -0.5657  -0.5538  -0.5473
 -0.5090  -0.4857  -0.4650  -0.4458  -0.3385  -0.3019

          Ground-State Mulliken Net Atomic Charges

     Atom                 Charge (a.u.)
  ----------------------------------------
      1 C                     0.046109
      2 C                    -0.263737
      3 C                     0.038915
      4 H                     0.179993
      5 C                    -0.257522
      6 S                    -0.002332
      7 C                    -0.273259
      8 H                     0.101787
      9 H                     0.106842
     10 H                     0.106885
     11 C                    -0.368546
     12 H                     0.112960
     13 H                     0.153136
     14 H                     0.123733
     15 H                     0.195036
  ----------------------------------------
  Sum of atomic charges =     0.000000

                    Cartesian Multipole Moments
 -----------------------------------------------------------------
    Charge (ESU x 10^10)
                -0.0000
    Dipole Moment (Debye)
         X       0.0603      Y      -0.0173      Z       0.8795
       Tot       0.8817
    Quadrupole Moments (Debye-Ang)
        XX     -53.4751     XY       2.1365     YY     -42.4035
        XZ      -0.1109     YZ       1.3547     ZZ     -48.8143

 Total job time:  158.21s(wall), 156.54s(cpu)
        *  Thank you very much for using Q-Chem.  Have a nice day.  *
