 Q-Chem 5.4, Q-Chem, Inc., Pleasanton, CA (2021)
 Q-Chem 5.4.0 for Intel X86 EM64T Linux

User input:
--------------------------------------------------------------
$molecule
0 1
C	-0.004507	-0.576312	0.013103
C	-0.004507	0.287288	1.112503
C	-0.004407	1.671188	0.789803
H	-0.004507	-0.081512	2.149203
C	-0.004407	1.891888	-0.599397
S	-0.004507	0.366088	-1.473697
C	-0.004407	2.758988	1.827703
H	-0.004407	2.333288	2.849803
H	-0.896807	3.413288	1.739303
H	0.887993	3.413188	1.739303
C	-0.004507	-2.017012	0.013103
H	0.930693	-2.016712	0.553203
H	-0.414107	-2.720812	0.722503
H	0.469093	-2.535912	-0.807097
H	-0.004407	2.841088	-1.148497
$end

$rem
JOBTYPE		SP
EXCHANGE	HF
CORRELATION	pRIMP2
BASIS		cc-pvtz
METHOD		rimp2
AUX_BASIS	rimp2-cc-pvtz
SOLVENT_METHOD	PCM
PURECART	11111
SYMMETRY	false
MEM_TOTAL	110000
SCF_CONVERGENCE = 6
THRESH=10
$end

$solvent
dielectric 4.90
$end
--------------------------------------------------------------

   10    -629.4238311230      6.39e-07  Convergence criterion met
 Total energy in the final basis set =     -629.4238311230
        RIMP2         total energy =      -630.6001491174 a.u.
 Total job time:  156.65s(wall), 154.65s(cpu)
        *  Thank you very much for using Q-Chem.  Have a nice day.  *
 Q-Chem 5.4, Q-Chem, Inc., Pleasanton, CA (2021)
 Q-Chem 5.4.0 for Intel X86 EM64T Linux

User input:
--------------------------------------------------------------
$molecule
0 1
C	-0.004507	-0.576312	0.013103
C	-0.004507	0.287288	1.112503
C	-0.004407	1.671188	0.789803
H	-0.004507	-0.081512	2.149203
C	-0.004407	1.891888	-0.599397
S	-0.004507	0.366088	-1.473697
C	-0.004407	2.758988	1.827703
H	-0.004407	2.333288	2.849803
H	-0.896807	3.413288	1.739303
H	0.887993	3.413188	1.739303
C	-0.004507	-2.017012	0.013103
H	0.930693	-2.016712	0.553203
H	-0.414107	-2.720812	0.722503
H	0.469093	-2.535912	-0.807097
H	-0.004407	2.841088	-1.148497
$end

$rem
JOBTYPE		SP
EXCHANGE	HF
CORRELATION	pRIMP2
BASIS		cc-pvtz
METHOD		rimp2
AUX_BASIS	rimp2-cc-pvtz
SOLVENT_METHOD	PCM
PURECART	11111
SYMMETRY	false
MEM_TOTAL	110000
SCF_CONVERGENCE = 6
THRESH=10
$end

$solvent
dielectric 4.90
$end
--------------------------------------------------------------

             Standard Nuclear Orientation (Angstroms)
    I     Atom           X                Y                Z
 ----------------------------------------------------------------
    1      C      -0.0045070000    -0.5763120000     0.0131030000
    2      C      -0.0045070000     0.2872880000     1.1125030000
    3      C      -0.0044070000     1.6711880000     0.7898030000
    4      H      -0.0045070000    -0.0815120000     2.1492030000
    5      C      -0.0044070000     1.8918880000    -0.5993970000
    6      S      -0.0045070000     0.3660880000    -1.4736970000
    7      C      -0.0044070000     2.7589880000     1.8277030000
    8      H      -0.0044070000     2.3332880000     2.8498030000
    9      H      -0.8968070000     3.4132880000     1.7393030000
   10      H       0.8879930000     3.4131880000     1.7393030000
   11      C      -0.0045070000    -2.0170120000     0.0131030000
   12      H       0.9306930000    -2.0167120000     0.5532030000
   13      H      -0.4141070000    -2.7208120000     0.7225030000
   14      H       0.4690930000    -2.5359120000    -0.8070970000
   15      H      -0.0044070000     2.8410880000    -1.1484970000
 ----------------------------------------------------------------

   10    -629.4238311230      6.39e-07  Convergence criterion met
 Total energy in the final basis set =     -629.4238311230
        RIMP2         total energy =      -630.6001491174 a.u.

                    Orbital Energies (a.u.)
 --------------------------------------------------------------

 Alpha MOs
 -- Occupied --
-91.9786 -11.2839 -11.2499 -11.2471 -11.2266 -11.2246 -11.2203  -8.9783
 -6.6592  -6.6587  -6.6581  -1.1601  -1.0554  -0.9982  -0.9410  -0.8832
 -0.7427  -0.7200  -0.6497  -0.5880  -0.5733  -0.5671  -0.5585  -0.5443
 -0.5080  -0.4916  -0.4659  -0.4532  -0.3375  -0.2913

          Ground-State Mulliken Net Atomic Charges

     Atom                 Charge (a.u.)
  ----------------------------------------
      1 C                     0.071312
      2 C                    -0.299735
      3 C                     0.045138
      4 H                     0.175241
      5 C                    -0.274872
      6 S                     0.000680
      7 C                    -0.275252
      8 H                     0.101252
      9 H                     0.107259
     10 H                     0.107207
     11 C                    -0.384532
     12 H                     0.140378
     13 H                     0.156701
     14 H                     0.136817
     15 H                     0.192406
  ----------------------------------------
  Sum of atomic charges =     0.000000

                    Cartesian Multipole Moments
 -----------------------------------------------------------------
    Charge (ESU x 10^10)
                -0.0000
    Dipole Moment (Debye)
         X       0.6375      Y      -0.6001      Z       1.7538
       Tot       1.9602
    Quadrupole Moments (Debye-Ang)
        XX     -54.2224     XY      -1.3307     YY     -41.9273
        XZ      -0.2276     YZ      -0.5200     ZZ     -48.6132

 Total job time:  157.02s(wall), 155.17s(cpu)
        *  Thank you very much for using Q-Chem.  Have a nice day.  *
