 Q-Chem 5.4, Q-Chem, Inc., Pleasanton, CA (2021)
 Q-Chem 5.4.0 for Intel X86 EM64T Linux

User input:
--------------------------------------------------------------
$molecule
0 1
C	-0.524494	-0.333974	0.015606
C	0.137106	0.221126	1.115006
C	1.197206	1.110626	0.792306
H	-0.145394	-0.015974	2.151706
C	1.366306	1.252426	-0.596894
S	0.197406	0.271726	-1.471194
C	2.030506	1.809826	1.830206
H	1.704406	1.536226	2.852306
H	1.958106	2.914026	1.741806
H	3.105306	1.546726	1.741806
C	-0.524494	-1.774674	0.015606
H	0.555506	-1.774374	0.015706
H	-0.524594	-2.478474	0.834806
H	-0.524494	-2.293574	-0.931494
H	2.093406	1.862626	-1.145994
$end

$rem
JOBTYPE		SP
EXCHANGE	HF
CORRELATION	pRIMP2
BASIS		cc-pvtz
METHOD		rimp2
AUX_BASIS	rimp2-cc-pvtz
SOLVENT_METHOD	PCM
PURECART	11111
SYMMETRY	false
MEM_TOTAL	110000
SCF_CONVERGENCE = 6
THRESH=10
$end

$solvent
dielectric 4.90
$end
--------------------------------------------------------------

             Standard Nuclear Orientation (Angstroms)
    I     Atom           X                Y                Z
 ----------------------------------------------------------------
    1      C      -0.5244940000    -0.3339740000     0.0156060000
    2      C       0.1371060000     0.2211260000     1.1150060000
    3      C       1.1972060000     1.1106260000     0.7923060000
    4      H      -0.1453940000    -0.0159740000     2.1517060000
    5      C       1.3663060000     1.2524260000    -0.5968940000
    6      S       0.1974060000     0.2717260000    -1.4711940000
    7      C       2.0305060000     1.8098260000     1.8302060000
    8      H       1.7044060000     1.5362260000     2.8523060000
    9      H       1.9581060000     2.9140260000     1.7418060000
   10      H       3.1053060000     1.5467260000     1.7418060000
   11      C      -0.5244940000    -1.7746740000     0.0156060000
   12      H       0.5555060000    -1.7743740000     0.0157060000
   13      H      -0.5245940000    -2.4784740000     0.8348060000
   14      H      -0.5244940000    -2.2935740000    -0.9314940000
   15      H       2.0934060000     1.8626260000    -1.1459940000
 ----------------------------------------------------------------

   10    -629.3736370723      6.49e-07  Convergence criterion met
 Total energy in the final basis set =     -629.3736370723
        RIMP2         total energy =      -630.5608723329 a.u.

                    Orbital Energies (a.u.)
 --------------------------------------------------------------

 Alpha MOs
 -- Occupied --
-91.9764 -11.2680 -11.2679 -11.2500 -11.2352 -11.2283 -11.2169  -8.9771
 -6.6580  -6.6573  -6.6568  -1.1723  -1.0582  -0.9971  -0.9391  -0.8809
 -0.7492  -0.7257  -0.6471  -0.5887  -0.5810  -0.5660  -0.5541  -0.5461
 -0.5085  -0.4934  -0.4610  -0.4468  -0.3388  -0.2875

          Ground-State Mulliken Net Atomic Charges

     Atom                 Charge (a.u.)
  ----------------------------------------
      1 C                    -0.026188
      2 C                    -0.215510
      3 C                     0.019280
      4 H                     0.177479
      5 C                    -0.236917
      6 S                     0.010191
      7 C                    -0.268632
      8 H                     0.102286
      9 H                     0.107601
     10 H                     0.105122
     11 C                    -0.366218
     12 H                     0.128424
     13 H                     0.143725
     14 H                     0.123498
     15 H                     0.195859
  ----------------------------------------
  Sum of atomic charges =     0.000000

                    Cartesian Multipole Moments
 -----------------------------------------------------------------
    Charge (ESU x 10^10)
                -0.0000
    Dipole Moment (Debye)
         X       2.1127      Y      -0.2684      Z       1.5654
       Tot       2.6431
    Quadrupole Moments (Debye-Ang)
        XX     -50.3193     XY       3.8155     YY     -47.8803
        XZ       0.0200     YZ      -0.1894     ZZ     -48.0440

 Total job time:  163.86s(wall), 161.56s(cpu)
        *  Thank you very much for using Q-Chem.  Have a nice day.  *
