 Q-Chem 5.4, Q-Chem, Inc., Pleasanton, CA (2021)
 Q-Chem 5.4.0 for Intel X86 EM64T Linux

User input:
--------------------------------------------------------------
$molecule
0 1
C	-0.112934	-0.566007	0.014756
C	0.037066	0.284493	1.114156
C	0.277366	1.647393	0.791456
H	-0.027034	-0.078707	2.150856
C	0.315766	1.864693	-0.597744
S	0.050766	0.362093	-1.472044
C	0.466266	2.718593	1.829356
H	0.392366	2.299393	2.851456
H	-0.298934	3.517893	1.740956
H	1.458766	3.207893	1.740956
C	-0.112934	-2.006707	0.014756
H	-1.176534	-2.006907	0.202156
H	0.029266	-2.710507	0.821556
H	-0.277434	-2.525607	-0.917944
H	0.480566	2.799393	-1.146844
$end

$rem
JOBTYPE		SP
EXCHANGE	HF
CORRELATION	pRIMP2
BASIS		cc-pvtz
METHOD		rimp2
AUX_BASIS	rimp2-cc-pvtz
SOLVENT_METHOD	PCM
PURECART	11111
SYMMETRY	false
MEM_TOTAL	110000
SCF_CONVERGENCE = 6
THRESH=10
$end

$solvent
dielectric 4.90
$end
--------------------------------------------------------------

   10    -629.4206010740      6.82e-07  Convergence criterion met
 Total energy in the final basis set =     -629.4206010740
        RIMP2         total energy =      -630.5969047741 a.u.
 Total job time:  157.53s(wall), 154.89s(cpu)
        *  Thank you very much for using Q-Chem.  Have a nice day.  *
 Q-Chem 5.4, Q-Chem, Inc., Pleasanton, CA (2021)
 Q-Chem 5.4.0 for Intel X86 EM64T Linux

User input:
--------------------------------------------------------------
$molecule
0 1
C	-0.112934	-0.566007	0.014756
C	0.037066	0.284493	1.114156
C	0.277366	1.647393	0.791456
H	-0.027034	-0.078707	2.150856
C	0.315766	1.864693	-0.597744
S	0.050766	0.362093	-1.472044
C	0.466266	2.718593	1.829356
H	0.392366	2.299393	2.851456
H	-0.298934	3.517893	1.740956
H	1.458766	3.207893	1.740956
C	-0.112934	-2.006707	0.014756
H	-1.176534	-2.006907	0.202156
H	0.029266	-2.710507	0.821556
H	-0.277434	-2.525607	-0.917944
H	0.480566	2.799393	-1.146844
$end

$rem
JOBTYPE		SP
EXCHANGE	HF
CORRELATION	pRIMP2
BASIS		cc-pvtz
METHOD		rimp2
AUX_BASIS	rimp2-cc-pvtz
SOLVENT_METHOD	PCM
PURECART	11111
SYMMETRY	false
MEM_TOTAL	110000
SCF_CONVERGENCE = 6
THRESH=10
$end

$solvent
dielectric 4.90
$end
--------------------------------------------------------------

             Standard Nuclear Orientation (Angstroms)
    I     Atom           X                Y                Z
 ----------------------------------------------------------------
    1      C      -0.1129340000    -0.5660070000     0.0147560000
    2      C       0.0370660000     0.2844930000     1.1141560000
    3      C       0.2773660000     1.6473930000     0.7914560000
    4      H      -0.0270340000    -0.0787070000     2.1508560000
    5      C       0.3157660000     1.8646930000    -0.5977440000
    6      S       0.0507660000     0.3620930000    -1.4720440000
    7      C       0.4662660000     2.7185930000     1.8293560000
    8      H       0.3923660000     2.2993930000     2.8514560000
    9      H      -0.2989340000     3.5178930000     1.7409560000
   10      H       1.4587660000     3.2078930000     1.7409560000
   11      C      -0.1129340000    -2.0067070000     0.0147560000
   12      H      -1.1765340000    -2.0069070000     0.2021560000
   13      H       0.0292660000    -2.7105070000     0.8215560000
   14      H      -0.2774340000    -2.5256070000    -0.9179440000
   15      H       0.4805660000     2.7993930000    -1.1468440000
 ----------------------------------------------------------------

   10    -629.4206010740      6.82e-07  Convergence criterion met
 Total energy in the final basis set =     -629.4206010740
        RIMP2         total energy =      -630.5969047741 a.u.

                    Orbital Energies (a.u.)
 --------------------------------------------------------------

 Alpha MOs
 -- Occupied --
-91.9786 -11.2840 -11.2492 -11.2469 -11.2263 -11.2233 -11.2208  -8.9784
 -6.6593  -6.6588  -6.6582  -1.1600  -1.0557  -0.9973  -0.9421  -0.8828
 -0.7435  -0.7190  -0.6493  -0.5862  -0.5731  -0.5680  -0.5558  -0.5455
 -0.5083  -0.4945  -0.4628  -0.4563  -0.3380  -0.2882

          Ground-State Mulliken Net Atomic Charges

     Atom                 Charge (a.u.)
  ----------------------------------------
      1 C                     0.063084
      2 C                    -0.311771
      3 C                     0.052949
      4 H                     0.174808
      5 C                    -0.280220
      6 S                     0.005103
      7 C                    -0.273992
      8 H                     0.101310
      9 H                     0.107232
     10 H                     0.107213
     11 C                    -0.381392
     12 H                     0.141092
     13 H                     0.164113
     14 H                     0.137979
     15 H                     0.192492
  ----------------------------------------
  Sum of atomic charges =     0.000000

                    Cartesian Multipole Moments
 -----------------------------------------------------------------
    Charge (ESU x 10^10)
                -0.0000
    Dipole Moment (Debye)
         X      -0.5430      Y      -0.6891      Z       1.5162
       Tot       1.7517
    Quadrupole Moments (Debye-Ang)
        XX     -53.9817     XY       3.0575     YY     -42.0875
        XZ       0.1104     YZ      -0.0610     ZZ     -48.5351

 Total job time:  157.57s(wall), 155.41s(cpu)
        *  Thank you very much for using Q-Chem.  Have a nice day.  *
