 Q-Chem 5.4, Q-Chem, Inc., Pleasanton, CA (2021)
 Q-Chem 5.4.0 for Intel X86 EM64T Linux

User input:
--------------------------------------------------------------
$molecule
0 1
C	-0.431188	-0.417594	0.015607
C	0.123912	0.243906	1.115007
C	1.013512	1.304106	0.792307
H	-0.113088	-0.038594	2.151707
C	1.155412	1.473106	-0.596893
S	0.174612	0.304306	-1.471193
C	1.712712	2.137306	1.830207
H	1.439112	1.811306	2.852307
H	1.449712	3.212106	1.741807
H	2.816912	2.064906	1.741807
C	-0.431188	-1.858294	0.015607
H	-1.511188	-1.858494	0.015507
H	-0.431288	-2.562094	0.834807
H	-0.431188	-2.377194	-0.931493
H	1.765512	2.200206	-1.145993
$end

$rem
JOBTYPE		SP
EXCHANGE	HF
CORRELATION	pRIMP2
BASIS		cc-pvtz
METHOD		rimp2
AUX_BASIS	rimp2-cc-pvtz
SOLVENT_METHOD	PCM
PURECART	11111
SYMMETRY	false
MEM_TOTAL	110000
SCF_CONVERGENCE = 6
THRESH=10
$end

$solvent
dielectric 4.90
$end
--------------------------------------------------------------

             Standard Nuclear Orientation (Angstroms)
    I     Atom           X                Y                Z
 ----------------------------------------------------------------
    1      C      -0.4311880000    -0.4175940000     0.0156070000
    2      C       0.1239120000     0.2439060000     1.1150070000
    3      C       1.0135120000     1.3041060000     0.7923070000
    4      H      -0.1130880000    -0.0385940000     2.1517070000
    5      C       1.1554120000     1.4731060000    -0.5968930000
    6      S       0.1746120000     0.3043060000    -1.4711930000
    7      C       1.7127120000     2.1373060000     1.8302070000
    8      H       1.4391120000     1.8113060000     2.8523070000
    9      H       1.4497120000     3.2121060000     1.7418070000
   10      H       2.8169120000     2.0649060000     1.7418070000
   11      C      -0.4311880000    -1.8582940000     0.0156070000
   12      H      -1.5111880000    -1.8584940000     0.0155070000
   13      H      -0.4312880000    -2.5620940000     0.8348070000
   14      H      -0.4311880000    -2.3771940000    -0.9314930000
   15      H       1.7655120000     2.2002060000    -1.1459930000
 ----------------------------------------------------------------

   10    -629.3816729398      6.11e-07  Convergence criterion met
 Total energy in the final basis set =     -629.3816729398
        RIMP2         total energy =      -630.5670714456 a.u.

                    Orbital Energies (a.u.)
 --------------------------------------------------------------

 Alpha MOs
 -- Occupied --
-91.9754 -11.2672 -11.2612 -11.2474 -11.2339 -11.2270 -11.2117  -8.9757
 -6.6566  -6.6559  -6.6554  -1.1636  -1.0541  -0.9959  -0.9416  -0.8821
 -0.7459  -0.7224  -0.6450  -0.5846  -0.5745  -0.5669  -0.5543  -0.5439
 -0.5133  -0.4929  -0.4579  -0.4424  -0.3368  -0.2852

          Ground-State Mulliken Net Atomic Charges

     Atom                 Charge (a.u.)
  ----------------------------------------
      1 C                    -0.009882
      2 C                    -0.244847
      3 C                     0.038142
      4 H                     0.178779
      5 C                    -0.247779
      6 S                     0.005547
      7 C                    -0.270077
      8 H                     0.101397
      9 H                     0.107087
     10 H                     0.105662
     11 C                    -0.382400
     12 H                     0.129341
     13 H                     0.157604
     14 H                     0.137734
     15 H                     0.193692
  ----------------------------------------
  Sum of atomic charges =     0.000000

                    Cartesian Multipole Moments
 -----------------------------------------------------------------
    Charge (ESU x 10^10)
                -0.0000
    Dipole Moment (Debye)
         X       0.4490      Y      -0.2310      Z       1.5470
       Tot       1.6273
    Quadrupole Moments (Debye-Ang)
        XX     -50.5811     XY       5.7504     YY     -46.2924
        XZ      -0.0077     YZ       0.0029     ZZ     -48.1384

 Total job time:  156.91s(wall), 154.61s(cpu)
        *  Thank you very much for using Q-Chem.  Have a nice day.  *
