 Q-Chem 5.4, Q-Chem, Inc., Pleasanton, CA (2021)
 Q-Chem 5.4.0 for Intel X86 EM64T Linux

User input:
--------------------------------------------------------------
$molecule
0 1
C	-0.585542	-0.237127	0.019522
C	0.162358	0.194673	1.118922
C	1.360858	0.886573	0.796222
H	-0.157042	0.010273	2.155622
C	1.551958	0.996873	-0.592978
S	0.230658	0.234073	-1.467278
C	2.302958	1.430473	1.834122
H	1.934258	1.217573	2.856222
H	2.423358	2.530373	1.745722
H	3.315758	0.984673	1.745722
C	-0.585542	-1.677827	0.019522
H	-1.125442	-1.678027	-0.915878
H	-1.295042	-2.381627	0.429022
H	0.234658	-2.196727	-0.454078
H	2.374058	1.471473	-1.142078
$end

$rem
JOBTYPE		SP
EXCHANGE	HF
CORRELATION	pRIMP2
BASIS		cc-pvtz
METHOD		rimp2
AUX_BASIS	rimp2-cc-pvtz
SOLVENT_METHOD	PCM
PURECART	11111
SYMMETRY	false
MEM_TOTAL	110000
SCF_CONVERGENCE = 6
THRESH=10
$end

$solvent
dielectric 4.90
$end
--------------------------------------------------------------

             Standard Nuclear Orientation (Angstroms)
    I     Atom           X                Y                Z
 ----------------------------------------------------------------
    1      C      -0.5855420000    -0.2371270000     0.0195220000
    2      C       0.1623580000     0.1946730000     1.1189220000
    3      C       1.3608580000     0.8865730000     0.7962220000
    4      H      -0.1570420000     0.0102730000     2.1556220000
    5      C       1.5519580000     0.9968730000    -0.5929780000
    6      S       0.2306580000     0.2340730000    -1.4672780000
    7      C       2.3029580000     1.4304730000     1.8341220000
    8      H       1.9342580000     1.2175730000     2.8562220000
    9      H       2.4233580000     2.5303730000     1.7457220000
   10      H       3.3157580000     0.9846730000     1.7457220000
   11      C      -0.5855420000    -1.6778270000     0.0195220000
   12      H      -1.1254420000    -1.6780270000    -0.9158780000
   13      H      -1.2950420000    -2.3816270000     0.4290220000
   14      H       0.2346580000    -2.1967270000    -0.4540780000
   15      H       2.3740580000     1.4714730000    -1.1420780000
 ----------------------------------------------------------------

   11    -629.3471815679      4.86e-07  Convergence criterion met
 Total energy in the final basis set =     -629.3471815679
        RIMP2         total energy =      -630.5370785742 a.u.

                    Orbital Energies (a.u.)
 --------------------------------------------------------------

 Alpha MOs
 -- Occupied --
-91.9763 -11.2848 -11.2521 -11.2486 -11.2404 -11.2287 -11.2077  -8.9771
 -6.6580  -6.6571  -6.6568  -1.1741  -1.0570  -0.9961  -0.9437  -0.8790
 -0.7552  -0.7287  -0.6427  -0.5948  -0.5795  -0.5679  -0.5516  -0.5458
 -0.5181  -0.4715  -0.4505  -0.4364  -0.3331  -0.3023

          Ground-State Mulliken Net Atomic Charges

     Atom                 Charge (a.u.)
  ----------------------------------------
      1 C                    -0.120028
      2 C                    -0.093834
      3 C                    -0.027769
      4 H                     0.184799
      5 C                    -0.177744
      6 S                     0.012409
      7 C                    -0.268755
      8 H                     0.102214
      9 H                     0.106589
     10 H                     0.103826
     11 C                    -0.373505
     12 H                     0.104142
     13 H                     0.132056
     14 H                     0.116021
     15 H                     0.199580
  ----------------------------------------
  Sum of atomic charges =     0.000000

                    Cartesian Multipole Moments
 -----------------------------------------------------------------
    Charge (ESU x 10^10)
                -0.0000
    Dipole Moment (Debye)
         X       2.2951      Y       0.2900      Z       1.3023
       Tot       2.6547
    Quadrupole Moments (Debye-Ang)
        XX     -47.6557     XY       5.0700     YY     -50.0359
        XZ      -0.4796     YZ       0.6159     ZZ     -47.8407

 Total job time:  176.76s(wall), 175.22s(cpu)
        *  Thank you very much for using Q-Chem.  Have a nice day.  *
