 Q-Chem 5.4, Q-Chem, Inc., Pleasanton, CA (2021)
 Q-Chem 5.4.0 for Intel X86 EM64T Linux

User input:
--------------------------------------------------------------
$molecule
0 1
C	-0.287270	-0.512744	0.019884
C	0.077730	0.269956	1.119284
C	0.662630	1.524156	0.796584
H	-0.078170	-0.064344	2.155984
C	0.755930	1.724156	-0.592616
S	0.111030	0.341356	-1.466916
C	1.122330	2.509956	1.834484
H	0.942430	2.124256	2.856584
H	0.590030	3.480156	1.746084
H	2.207630	2.725856	1.746084
C	-0.287270	-1.953444	0.019884
H	-0.287170	-1.953644	-1.060116
H	-1.106470	-2.657244	0.019784
H	0.659830	-2.472344	0.019884
H	1.157030	2.584456	-1.141716
$end

$rem
JOBTYPE		SP
EXCHANGE	HF
CORRELATION	pRIMP2
BASIS		cc-pvtz
METHOD		rimp2
AUX_BASIS	rimp2-cc-pvtz
SOLVENT_METHOD	PCM
PURECART	11111
SYMMETRY	false
MEM_TOTAL	110000
SCF_CONVERGENCE = 6
THRESH=10
$end

$solvent
dielectric 4.90
$end
--------------------------------------------------------------

             Standard Nuclear Orientation (Angstroms)
    I     Atom           X                Y                Z
 ----------------------------------------------------------------
    1      C      -0.2872700000    -0.5127440000     0.0198840000
    2      C       0.0777300000     0.2699560000     1.1192840000
    3      C       0.6626300000     1.5241560000     0.7965840000
    4      H      -0.0781700000    -0.0643440000     2.1559840000
    5      C       0.7559300000     1.7241560000    -0.5926160000
    6      S       0.1110300000     0.3413560000    -1.4669160000
    7      C       1.1223300000     2.5099560000     1.8344840000
    8      H       0.9424300000     2.1242560000     2.8565840000
    9      H       0.5900300000     3.4801560000     1.7460840000
   10      H       2.2076300000     2.7258560000     1.7460840000
   11      C      -0.2872700000    -1.9534440000     0.0198840000
   12      H      -0.2871700000    -1.9536440000    -1.0601160000
   13      H      -1.1064700000    -2.6572440000     0.0197840000
   14      H       0.6598300000    -2.4723440000     0.0198840000
   15      H       1.1570300000     2.5844560000    -1.1417160000
 ----------------------------------------------------------------

   10    -629.4083045161      5.30e-07  Convergence criterion met
 Total energy in the final basis set =     -629.4083045161
        RIMP2         total energy =      -630.5889036416 a.u.

                    Orbital Energies (a.u.)
 --------------------------------------------------------------

 Alpha MOs
 -- Occupied --
-91.9796 -11.2699 -11.2615 -11.2472 -11.2323 -11.2271 -11.2142  -8.9796
 -6.6605  -6.6599  -6.6594  -1.1628  -1.0552  -0.9948  -0.9459  -0.8810
 -0.7490  -0.7198  -0.6467  -0.5916  -0.5759  -0.5659  -0.5530  -0.5475
 -0.5108  -0.4807  -0.4648  -0.4425  -0.3374  -0.3042

          Ground-State Mulliken Net Atomic Charges

     Atom                 Charge (a.u.)
  ----------------------------------------
      1 C                     0.026527
      2 C                    -0.258346
      3 C                     0.044748
      4 H                     0.178536
      5 C                    -0.252366
      6 S                    -0.002083
      7 C                    -0.271707
      8 H                     0.102040
      9 H                     0.106846
     10 H                     0.106244
     11 C                    -0.362307
     12 H                     0.112726
     13 H                     0.144106
     14 H                     0.129475
     15 H                     0.195564
  ----------------------------------------
  Sum of atomic charges =     0.000000

                    Cartesian Multipole Moments
 -----------------------------------------------------------------
    Charge (ESU x 10^10)
                -0.0000
    Dipole Moment (Debye)
         X       0.7563      Y       0.1247      Z       0.9065
       Tot       1.1871
    Quadrupole Moments (Debye-Ang)
        XX     -52.2616     XY       3.5267     YY     -44.0417
        XZ       0.2028     YZ       1.3585     ZZ     -48.7042

 Total job time:  157.80s(wall), 155.90s(cpu)
        *  Thank you very much for using Q-Chem.  Have a nice day.  *
