 Q-Chem 5.4, Q-Chem, Inc., Pleasanton, CA (2021)
 Q-Chem 5.4.0 for Intel X86 EM64T Linux

User input:
--------------------------------------------------------------
$molecule
0 1
C	-0.175851	-0.553191	0.019910
C	0.047649	0.281009	1.119310
C	0.405849	1.617709	0.796610
H	-0.047751	-0.075291	2.156010
C	0.463049	1.830809	-0.592590
S	0.068049	0.357109	-1.466890
C	0.687449	2.668409	1.834510
H	0.577249	2.257309	2.856610
H	-0.005151	3.531409	1.746110
H	1.718749	3.069409	1.746110
C	-0.175851	-1.993891	0.019910
H	0.011849	-1.993591	-1.043690
H	0.630849	-2.697691	0.162210
H	-1.108551	-2.512791	-0.144590
H	0.708749	2.747709	-1.141690
$end

$rem
JOBTYPE		SP
EXCHANGE	HF
CORRELATION	pRIMP2
BASIS		cc-pvtz
METHOD		rimp2
AUX_BASIS	rimp2-cc-pvtz
SOLVENT_METHOD	PCM
PURECART	11111
SYMMETRY	false
MEM_TOTAL	110000
SCF_CONVERGENCE = 6
THRESH=10
$end

$solvent
dielectric 4.90
$end
--------------------------------------------------------------

             Standard Nuclear Orientation (Angstroms)
    I     Atom           X                Y                Z
 ----------------------------------------------------------------
    1      C      -0.1758510000    -0.5531910000     0.0199100000
    2      C       0.0476490000     0.2810090000     1.1193100000
    3      C       0.4058490000     1.6177090000     0.7966100000
    4      H      -0.0477510000    -0.0752910000     2.1560100000
    5      C       0.4630490000     1.8308090000    -0.5925900000
    6      S       0.0680490000     0.3571090000    -1.4668900000
    7      C       0.6874490000     2.6684090000     1.8345100000
    8      H       0.5772490000     2.2573090000     2.8566100000
    9      H      -0.0051510000     3.5314090000     1.7461100000
   10      H       1.7187490000     3.0694090000     1.7461100000
   11      C      -0.1758510000    -1.9938910000     0.0199100000
   12      H       0.0118490000    -1.9935910000    -1.0436900000
   13      H       0.6308490000    -2.6976910000     0.1622100000
   14      H      -1.1085510000    -2.5127910000    -0.1445900000
   15      H       0.7087490000     2.7477090000    -1.1416900000
 ----------------------------------------------------------------

   10    -629.4152677685      5.49e-07  Convergence criterion met
 Total energy in the final basis set =     -629.4152677685
        RIMP2         total energy =      -630.5941354160 a.u.

                    Orbital Energies (a.u.)
 --------------------------------------------------------------

 Alpha MOs
 -- Occupied --
-91.9798 -11.2730 -11.2591 -11.2470 -11.2305 -11.2269 -11.2150  -8.9798
 -6.6607  -6.6602  -6.6596  -1.1616  -1.0551  -0.9950  -0.9463  -0.8814
 -0.7483  -0.7190  -0.6481  -0.5901  -0.5760  -0.5662  -0.5532  -0.5474
 -0.5103  -0.4832  -0.4648  -0.4437  -0.3382  -0.3035

          Ground-State Mulliken Net Atomic Charges

     Atom                 Charge (a.u.)
  ----------------------------------------
      1 C                     0.044836
      2 C                    -0.267883
      3 C                     0.044797
      4 H                     0.179917
      5 C                    -0.257428
      6 S                    -0.003687
      7 C                    -0.272897
      8 H                     0.101915
      9 H                     0.106910
     10 H                     0.106712
     11 C                    -0.364517
     12 H                     0.115154
     13 H                     0.145885
     14 H                     0.124782
     15 H                     0.195505
  ----------------------------------------
  Sum of atomic charges =     0.000000

                    Cartesian Multipole Moments
 -----------------------------------------------------------------
    Charge (ESU x 10^10)
                -0.0000
    Dipole Moment (Debye)
         X       0.5179      Y       0.0715      Z       0.8713
       Tot       1.0161
    Quadrupole Moments (Debye-Ang)
        XX     -53.2017     XY       1.8537     YY     -42.9019
        XZ       0.2202     YZ       1.4296     ZZ     -48.7762

 Total job time:  156.34s(wall), 155.09s(cpu)
        *  Thank you very much for using Q-Chem.  Have a nice day.  *
