 Q-Chem 5.4, Q-Chem, Inc., Pleasanton, CA (2021)
 Q-Chem 5.4.0 for Intel X86 EM64T Linux

User input:
--------------------------------------------------------------
$molecule
0 1
C	-0.173646	-0.553191	0.010543
C	0.049854	0.281009	1.109943
C	0.408054	1.617709	0.787243
H	-0.045546	-0.075291	2.146643
C	0.465254	1.830809	-0.601957
S	0.070254	0.357109	-1.476257
C	0.689654	2.668409	1.825143
H	0.579454	2.257309	2.847243
H	-0.002946	3.531409	1.736743
H	1.720954	3.069409	1.736743
C	-0.173646	-1.993891	0.010543
H	-0.713746	-1.993591	0.945743
H	-0.883046	-2.697691	-0.399057
H	0.646554	-2.512791	0.484143
H	0.710954	2.747709	-1.151057
$end

$rem
JOBTYPE		SP
EXCHANGE	HF
CORRELATION	pRIMP2
BASIS		cc-pvtz
METHOD		rimp2
AUX_BASIS	rimp2-cc-pvtz
SOLVENT_METHOD	PCM
PURECART	11111
SYMMETRY	false
MEM_TOTAL	110000
SCF_CONVERGENCE = 6
THRESH=10
$end

$solvent
dielectric 4.90
$end
--------------------------------------------------------------

             Standard Nuclear Orientation (Angstroms)
    I     Atom           X                Y                Z
 ----------------------------------------------------------------
    1      C      -0.1736460000    -0.5531910000     0.0105430000
    2      C       0.0498540000     0.2810090000     1.1099430000
    3      C       0.4080540000     1.6177090000     0.7872430000
    4      H      -0.0455460000    -0.0752910000     2.1466430000
    5      C       0.4652540000     1.8308090000    -0.6019570000
    6      S       0.0702540000     0.3571090000    -1.4762570000
    7      C       0.6896540000     2.6684090000     1.8251430000
    8      H       0.5794540000     2.2573090000     2.8472430000
    9      H      -0.0029460000     3.5314090000     1.7367430000
   10      H       1.7209540000     3.0694090000     1.7367430000
   11      C      -0.1736460000    -1.9938910000     0.0105430000
   12      H      -0.7137460000    -1.9935910000     0.9457430000
   13      H      -0.8830460000    -2.6976910000    -0.3990570000
   14      H       0.6465540000    -2.5127910000     0.4841430000
   15      H       0.7109540000     2.7477090000    -1.1510570000
 ----------------------------------------------------------------

   10    -629.4205715319      5.24e-07  Convergence criterion met
 Total energy in the final basis set =     -629.4205715319
        RIMP2         total energy =      -630.5992988977 a.u.

                    Orbital Energies (a.u.)
 --------------------------------------------------------------

 Alpha MOs
 -- Occupied --
-91.9748 -11.2779 -11.2562 -11.2474 -11.2330 -11.2273 -11.2169  -8.9749
 -6.6559  -6.6553  -6.6547  -1.1611  -1.0543  -0.9992  -0.9395  -0.8842
 -0.7424  -0.7230  -0.6478  -0.5917  -0.5770  -0.5663  -0.5594  -0.5425
 -0.5105  -0.4875  -0.4658  -0.4399  -0.3376  -0.2996

          Ground-State Mulliken Net Atomic Charges

     Atom                 Charge (a.u.)
  ----------------------------------------
      1 C                     0.053586
      2 C                    -0.280119
      3 C                     0.040689
      4 H                     0.177611
      5 C                    -0.257533
      6 S                    -0.005017
      7 C                    -0.273105
      8 H                     0.101148
      9 H                     0.107050
     10 H                     0.107316
     11 C                    -0.374799
     12 H                     0.123777
     13 H                     0.156200
     14 H                     0.130698
     15 H                     0.192500
  ----------------------------------------
  Sum of atomic charges =     0.000000

                    Cartesian Multipole Moments
 -----------------------------------------------------------------
    Charge (ESU x 10^10)
                -0.0000
    Dipole Moment (Debye)
         X       0.0502      Y      -0.2075      Z       2.0859
       Tot       2.0968
    Quadrupole Moments (Debye-Ang)
        XX     -53.1756     XY       3.1018     YY     -42.7546
        XZ       0.2592     YZ      -0.8525     ZZ     -48.8482

 Total job time:  155.41s(wall), 154.75s(cpu)
        *  Thank you very much for using Q-Chem.  Have a nice day.  *
