 Q-Chem 5.4, Q-Chem, Inc., Pleasanton, CA (2021)
 Q-Chem 5.4.0 for Intel X86 EM64T Linux

User input:
--------------------------------------------------------------
$molecule
0 1
C	-0.335830	-0.485421	0.011474
C	0.095970	0.262479	1.110874
C	0.787970	1.460979	0.788174
H	-0.088430	-0.056921	2.147574
C	0.898270	1.652079	-0.601026
S	0.135370	0.330679	-1.475326
C	1.331870	2.402979	1.826074
H	1.119070	2.034379	2.848174
H	0.886170	3.415779	1.737674
H	2.431870	2.523379	1.737674
C	-0.335830	-1.926121	0.011474
H	-1.163230	-1.925821	0.705574
H	-0.862330	-2.629921	-0.616126
H	0.272970	-2.445021	0.736974
H	1.372970	2.474079	-1.150126
$end

$rem
JOBTYPE		SP
EXCHANGE	HF
CORRELATION	pRIMP2
BASIS		cc-pvtz
METHOD		rimp2
AUX_BASIS	rimp2-cc-pvtz
SOLVENT_METHOD	PCM
PURECART	11111
SYMMETRY	false
MEM_TOTAL	110000
SCF_CONVERGENCE = 6
THRESH=10
$end

$solvent
dielectric 4.90
$end
--------------------------------------------------------------

   10    -629.4043718346      5.50e-07  Convergence criterion met
 Total energy in the final basis set =     -629.4043718346
        RIMP2         total energy =      -630.5864298264 a.u.
 Total job time:  157.35s(wall), 155.26s(cpu)
        *  Thank you very much for using Q-Chem.  Have a nice day.  *
 Q-Chem 5.4, Q-Chem, Inc., Pleasanton, CA (2021)
 Q-Chem 5.4.0 for Intel X86 EM64T Linux

User input:
--------------------------------------------------------------
$molecule
0 1
C	-0.335830	-0.485421	0.011474
C	0.095970	0.262479	1.110874
C	0.787970	1.460979	0.788174
H	-0.088430	-0.056921	2.147574
C	0.898270	1.652079	-0.601026
S	0.135370	0.330679	-1.475326
C	1.331870	2.402979	1.826074
H	1.119070	2.034379	2.848174
H	0.886170	3.415779	1.737674
H	2.431870	2.523379	1.737674
C	-0.335830	-1.926121	0.011474
H	-1.163230	-1.925821	0.705574
H	-0.862330	-2.629921	-0.616126
H	0.272970	-2.445021	0.736974
H	1.372970	2.474079	-1.150126
$end

$rem
JOBTYPE		SP
EXCHANGE	HF
CORRELATION	pRIMP2
BASIS		cc-pvtz
METHOD		rimp2
AUX_BASIS	rimp2-cc-pvtz
SOLVENT_METHOD	PCM
PURECART	11111
SYMMETRY	false
MEM_TOTAL	110000
SCF_CONVERGENCE = 6
THRESH=10
$end

$solvent
dielectric 4.90
$end
--------------------------------------------------------------

             Standard Nuclear Orientation (Angstroms)
    I     Atom           X                Y                Z
 ----------------------------------------------------------------
    1      C      -0.3358300000    -0.4854210000     0.0114740000
    2      C       0.0959700000     0.2624790000     1.1108740000
    3      C       0.7879700000     1.4609790000     0.7881740000
    4      H      -0.0884300000    -0.0569210000     2.1475740000
    5      C       0.8982700000     1.6520790000    -0.6010260000
    6      S       0.1353700000     0.3306790000    -1.4753260000
    7      C       1.3318700000     2.4029790000     1.8260740000
    8      H       1.1190700000     2.0343790000     2.8481740000
    9      H       0.8861700000     3.4157790000     1.7376740000
   10      H       2.4318700000     2.5233790000     1.7376740000
   11      C      -0.3358300000    -1.9261210000     0.0114740000
   12      H      -1.1632300000    -1.9258210000     0.7055740000
   13      H      -0.8623300000    -2.6299210000    -0.6161260000
   14      H       0.2729700000    -2.4450210000     0.7369740000
   15      H       1.3729700000     2.4740790000    -1.1501260000
 ----------------------------------------------------------------

   10    -629.4043718346      5.50e-07  Convergence criterion met
 Total energy in the final basis set =     -629.4043718346
        RIMP2         total energy =      -630.5864298264 a.u.

                    Orbital Energies (a.u.)
 --------------------------------------------------------------

 Alpha MOs
 -- Occupied --
-91.9740 -11.2737 -11.2581 -11.2479 -11.2340 -11.2274 -11.2152  -8.9743
 -6.6552  -6.6545  -6.6540  -1.1623  -1.0542  -0.9983  -0.9393  -0.8837
 -0.7432  -0.7229  -0.6456  -0.5892  -0.5774  -0.5661  -0.5578  -0.5431
 -0.5122  -0.4905  -0.4616  -0.4396  -0.3372  -0.2934

          Ground-State Mulliken Net Atomic Charges

     Atom                 Charge (a.u.)
  ----------------------------------------
      1 C                     0.029758
      2 C                    -0.278878
      3 C                     0.041718
      4 H                     0.177397
      5 C                    -0.250104
      6 S                     0.000095
      7 C                    -0.271406
      8 H                     0.101240
      9 H                     0.107075
     10 H                     0.106806
     11 C                    -0.381853
     12 H                     0.129810
     13 H                     0.154694
     14 H                     0.141989
     15 H                     0.191658
  ----------------------------------------
  Sum of atomic charges =     0.000000

                    Cartesian Multipole Moments
 -----------------------------------------------------------------
    Charge (ESU x 10^10)
                -0.0000
    Dipole Moment (Debye)
         X       0.2604      Y      -0.2457      Z       1.9812
       Tot       2.0133
    Quadrupole Moments (Debye-Ang)
        XX     -51.7020     XY       5.0922     YY     -44.5830
        XZ       0.3182     YZ      -0.5147     ZZ     -48.5822

 Total job time:  156.55s(wall), 155.43s(cpu)
        *  Thank you very much for using Q-Chem.  Have a nice day.  *
