 Q-Chem 5.4, Q-Chem, Inc., Pleasanton, CA (2021)
 Q-Chem 5.4.0 for Intel X86 EM64T Linux

User input:
--------------------------------------------------------------
$molecule
0 1
C	-0.583912	-0.237129	0.018379
C	0.163988	0.194671	1.117779
C	1.362488	0.886571	0.795079
H	-0.155412	0.010271	2.154479
C	1.553588	0.996871	-0.594121
S	0.232288	0.234071	-1.468421
C	2.304588	1.430471	1.832979
H	1.935888	1.217571	2.855079
H	2.424988	2.530371	1.744579
H	3.317388	0.984671	1.744579
C	-0.583912	-1.677829	0.018379
H	-1.278012	-1.677529	-0.809021
H	0.043688	-2.381629	-0.508121
H	-1.309412	-2.196729	0.627179
H	2.375688	1.471471	-1.143221
$end

$rem
JOBTYPE		SP
EXCHANGE	HF
CORRELATION	pRIMP2
BASIS		cc-pvtz
METHOD		rimp2
AUX_BASIS	rimp2-cc-pvtz
SOLVENT_METHOD	PCM
PURECART	11111
SYMMETRY	false
MEM_TOTAL	110000
SCF_CONVERGENCE = 6
THRESH=10
$end

$solvent
dielectric 4.90
$end
--------------------------------------------------------------

             Standard Nuclear Orientation (Angstroms)
    I     Atom           X                Y                Z
 ----------------------------------------------------------------
    1      C      -0.5839120000    -0.2371290000     0.0183790000
    2      C       0.1639880000     0.1946710000     1.1177790000
    3      C       1.3624880000     0.8865710000     0.7950790000
    4      H      -0.1554120000     0.0102710000     2.1544790000
    5      C       1.5535880000     0.9968710000    -0.5941210000
    6      S       0.2322880000     0.2340710000    -1.4684210000
    7      C       2.3045880000     1.4304710000     1.8329790000
    8      H       1.9358880000     1.2175710000     2.8550790000
    9      H       2.4249880000     2.5303710000     1.7445790000
   10      H       3.3173880000     0.9846710000     1.7445790000
   11      C      -0.5839120000    -1.6778290000     0.0183790000
   12      H      -1.2780120000    -1.6775290000    -0.8090210000
   13      H       0.0436880000    -2.3816290000    -0.5081210000
   14      H      -1.3094120000    -2.1967290000     0.6271790000
   15      H       2.3756880000     1.4714710000    -1.1432210000
 ----------------------------------------------------------------

   11    -629.3445710940      5.29e-07  Convergence criterion met
 Total energy in the final basis set =     -629.3445710940
        RIMP2         total energy =      -630.5346926378 a.u.

                    Orbital Energies (a.u.)
 --------------------------------------------------------------

 Alpha MOs
 -- Occupied --
-91.9764 -11.2852 -11.2530 -11.2489 -11.2376 -11.2288 -11.2063  -8.9772
 -6.6580  -6.6572  -6.6569  -1.1731  -1.0557  -0.9968  -0.9427  -0.8801
 -0.7543  -0.7294  -0.6420  -0.5902  -0.5783  -0.5731  -0.5509  -0.5446
 -0.5200  -0.4748  -0.4505  -0.4307  -0.3343  -0.2987

          Ground-State Mulliken Net Atomic Charges

     Atom                 Charge (a.u.)
  ----------------------------------------
      1 C                    -0.130506
      2 C                    -0.093348
      3 C                    -0.025240
      4 H                     0.186127
      5 C                    -0.173087
      6 S                     0.012683
      7 C                    -0.268304
      8 H                     0.102168
      9 H                     0.106400
     10 H                     0.103770
     11 C                    -0.382155
     12 H                     0.108366
     13 H                     0.138586
     14 H                     0.115314
     15 H                     0.199226
  ----------------------------------------
  Sum of atomic charges =     0.000000

                    Cartesian Multipole Moments
 -----------------------------------------------------------------
    Charge (ESU x 10^10)
                -0.0000
    Dipole Moment (Debye)
         X       2.2744      Y       0.3630      Z       1.3732
       Tot       2.6815
    Quadrupole Moments (Debye-Ang)
        XX     -47.6898     XY       4.8967     YY     -50.1161
        XZ      -0.5675     YZ       0.6519     ZZ     -47.7461

 Total job time:  176.87s(wall), 174.82s(cpu)
        *  Thank you very much for using Q-Chem.  Have a nice day.  *
