 Q-Chem 5.4, Q-Chem, Inc., Pleasanton, CA (2021)
 Q-Chem 5.4.0 for Intel X86 EM64T Linux

User input:
--------------------------------------------------------------
$molecule
0 1
C	-0.056945	-0.573727	0.010669
C	0.018355	0.286573	1.110069
C	0.138955	1.665273	0.787369
H	-0.013745	-0.080827	2.146769
C	0.158255	1.885073	-0.601831
S	0.025255	0.365073	-1.476131
C	0.233855	2.748873	1.825269
H	0.196755	2.324773	2.847369
H	-0.598145	3.478373	1.736869
H	1.179855	3.322873	1.736869
C	-0.056945	-2.014427	0.010669
H	-0.426445	-2.014627	1.025469
H	0.712855	-2.718227	0.290869
H	-0.946945	-2.533327	-0.313231
H	0.240955	2.830673	-1.150931
$end

$rem
JOBTYPE		SP
EXCHANGE	HF
CORRELATION	pRIMP2
BASIS		cc-pvtz
METHOD		rimp2
AUX_BASIS	rimp2-cc-pvtz
SOLVENT_METHOD	PCM
PURECART	11111
SYMMETRY	false
MEM_TOTAL	110000
SCF_CONVERGENCE = 6
THRESH=10
$end

$solvent
dielectric 4.90
$end
--------------------------------------------------------------

             Standard Nuclear Orientation (Angstroms)
    I     Atom           X                Y                Z
 ----------------------------------------------------------------
    1      C      -0.0569450000    -0.5737270000     0.0106690000
    2      C       0.0183550000     0.2865730000     1.1100690000
    3      C       0.1389550000     1.6652730000     0.7873690000
    4      H      -0.0137450000    -0.0808270000     2.1467690000
    5      C       0.1582550000     1.8850730000    -0.6018310000
    6      S       0.0252550000     0.3650730000    -1.4761310000
    7      C       0.2338550000     2.7488730000     1.8252690000
    8      H       0.1967550000     2.3247730000     2.8473690000
    9      H      -0.5981450000     3.4783730000     1.7368690000
   10      H       1.1798550000     3.3228730000     1.7368690000
   11      C      -0.0569450000    -2.0144270000     0.0106690000
   12      H      -0.4264450000    -2.0146270000     1.0254690000
   13      H       0.7128550000    -2.7182270000     0.2908690000
   14      H      -0.9469450000    -2.5333270000    -0.3132310000
   15      H       0.2409550000     2.8306730000    -1.1509310000
 ----------------------------------------------------------------

   10    -629.4243363968      5.04e-07  Convergence criterion met
 Total energy in the final basis set =     -629.4243363968
        RIMP2         total energy =      -630.6022133849 a.u.

                    Orbital Energies (a.u.)
 --------------------------------------------------------------

 Alpha MOs
 -- Occupied --
-91.9753 -11.2779 -11.2568 -11.2471 -11.2333 -11.2273 -11.2166  -8.9754
 -6.6563  -6.6558  -6.6552  -1.1609  -1.0540  -0.9995  -0.9400  -0.8844
 -0.7424  -0.7237  -0.6493  -0.5905  -0.5771  -0.5659  -0.5600  -0.5422
 -0.5102  -0.4862  -0.4674  -0.4395  -0.3378  -0.3024

          Ground-State Mulliken Net Atomic Charges

     Atom                 Charge (a.u.)
  ----------------------------------------
      1 C                     0.062810
      2 C                    -0.269636
      3 C                     0.031881
      4 H                     0.177948
      5 C                    -0.253326
      6 S                    -0.007949
      7 C                    -0.273929
      8 H                     0.101142
      9 H                     0.107090
     10 H                     0.107342
     11 C                    -0.372697
     12 H                     0.121490
     13 H                     0.140711
     14 H                     0.133881
     15 H                     0.193241
  ----------------------------------------
  Sum of atomic charges =     0.000000

                    Cartesian Multipole Moments
 -----------------------------------------------------------------
    Charge (ESU x 10^10)
                -0.0000
    Dipole Moment (Debye)
         X      -0.1118      Y      -0.1106      Z       2.1073
       Tot       2.1132
    Quadrupole Moments (Debye-Ang)
        XX     -53.6801     XY       1.2131     YY     -42.2195
        XZ       0.1951     YZ      -1.0658     ZZ     -48.8999

 Total job time:  161.64s(wall), 159.44s(cpu)
        *  Thank you very much for using Q-Chem.  Have a nice day.  *
