 Q-Chem 5.4, Q-Chem, Inc., Pleasanton, CA (2021)
 Q-Chem 5.4.0 for Intel X86 EM64T Linux

User input:
--------------------------------------------------------------
$molecule
0 1
C	0.000258	-0.576309	0.019910
C	0.000258	0.287291	1.119310
C	0.000358	1.671191	0.796610
H	0.000258	-0.081509	2.156010
C	0.000358	1.891891	-0.592590
S	0.000258	0.366091	-1.466890
C	0.000358	2.758991	1.834510
H	0.000358	2.333291	2.856610
H	-0.892042	3.413291	1.746110
H	0.892758	3.413191	1.746110
C	0.000258	-2.017009	0.019910
H	-0.187142	-2.017209	-1.043690
H	-0.806542	-2.720809	0.162110
H	0.932958	-2.535909	-0.144590
H	0.000358	2.841091	-1.141690
$end

$rem
JOBTYPE		SP
EXCHANGE	HF
CORRELATION	pRIMP2
BASIS		cc-pvtz
METHOD		rimp2
AUX_BASIS	rimp2-cc-pvtz
SOLVENT_METHOD	PCM
PURECART	11111
SYMMETRY	false
MEM_TOTAL	110000
SCF_CONVERGENCE = 6
THRESH=10
$end

$solvent
dielectric 4.90
$end
--------------------------------------------------------------

   10    -629.4206803200      5.50e-07  Convergence criterion met
 Total energy in the final basis set =     -629.4206803200
        RIMP2         total energy =      -630.5983871677 a.u.
 Total job time:  158.18s(wall), 155.76s(cpu)
        *  Thank you very much for using Q-Chem.  Have a nice day.  *
 Q-Chem 5.4, Q-Chem, Inc., Pleasanton, CA (2021)
 Q-Chem 5.4.0 for Intel X86 EM64T Linux

User input:
--------------------------------------------------------------
$molecule
0 1
C	0.000258	-0.576309	0.019910
C	0.000258	0.287291	1.119310
C	0.000358	1.671191	0.796610
H	0.000258	-0.081509	2.156010
C	0.000358	1.891891	-0.592590
S	0.000258	0.366091	-1.466890
C	0.000358	2.758991	1.834510
H	0.000358	2.333291	2.856610
H	-0.892042	3.413291	1.746110
H	0.892758	3.413191	1.746110
C	0.000258	-2.017009	0.019910
H	-0.187142	-2.017209	-1.043690
H	-0.806542	-2.720809	0.162110
H	0.932958	-2.535909	-0.144590
H	0.000358	2.841091	-1.141690
$end

$rem
JOBTYPE		SP
EXCHANGE	HF
CORRELATION	pRIMP2
BASIS		cc-pvtz
METHOD		rimp2
AUX_BASIS	rimp2-cc-pvtz
SOLVENT_METHOD	PCM
PURECART	11111
SYMMETRY	false
MEM_TOTAL	110000
SCF_CONVERGENCE = 6
THRESH=10
$end

$solvent
dielectric 4.90
$end
--------------------------------------------------------------

             Standard Nuclear Orientation (Angstroms)
    I     Atom           X                Y                Z
 ----------------------------------------------------------------
    1      C       0.0002580000    -0.5763090000     0.0199100000
    2      C       0.0002580000     0.2872910000     1.1193100000
    3      C       0.0003580000     1.6711910000     0.7966100000
    4      H       0.0002580000    -0.0815090000     2.1560100000
    5      C       0.0003580000     1.8918910000    -0.5925900000
    6      S       0.0002580000     0.3660910000    -1.4668900000
    7      C       0.0003580000     2.7589910000     1.8345100000
    8      H       0.0003580000     2.3332910000     2.8566100000
    9      H      -0.8920420000     3.4132910000     1.7461100000
   10      H       0.8927580000     3.4131910000     1.7461100000
   11      C       0.0002580000    -2.0170090000     0.0199100000
   12      H      -0.1871420000    -2.0172090000    -1.0436900000
   13      H      -0.8065420000    -2.7208090000     0.1621100000
   14      H       0.9329580000    -2.5359090000    -0.1445900000
   15      H       0.0003580000     2.8410910000    -1.1416900000
 ----------------------------------------------------------------

   10    -629.4206803200      5.50e-07  Convergence criterion met
 Total energy in the final basis set =     -629.4206803200
        RIMP2         total energy =      -630.5983871677 a.u.

                    Orbital Energies (a.u.)
 --------------------------------------------------------------

 Alpha MOs
 -- Occupied --
-91.9807 -11.2752 -11.2576 -11.2470 -11.2289 -11.2268 -11.2161  -8.9805
 -6.6614  -6.6609  -6.6603  -1.1609  -1.0552  -0.9953  -0.9464  -0.8817
 -0.7479  -0.7185  -0.6484  -0.5914  -0.5753  -0.5656  -0.5539  -0.5474
 -0.5088  -0.4862  -0.4650  -0.4444  -0.3385  -0.3035

          Ground-State Mulliken Net Atomic Charges

     Atom                 Charge (a.u.)
  ----------------------------------------
      1 C                     0.058972
      2 C                    -0.264871
      3 C                     0.040251
      4 H                     0.180273
      5 C                    -0.260321
      6 S                    -0.002927
      7 C                    -0.273415
      8 H                     0.101908
      9 H                     0.106826
     10 H                     0.106905
     11 C                    -0.371770
     12 H                     0.113131
     13 H                     0.146107
     14 H                     0.123529
     15 H                     0.195402
  ----------------------------------------
  Sum of atomic charges =     0.000000

                    Cartesian Multipole Moments
 -----------------------------------------------------------------
    Charge (ESU x 10^10)
                -0.0000
    Dipole Moment (Debye)
         X      -0.0954      Y       0.0164      Z       0.8477
       Tot       0.8532
    Quadrupole Moments (Debye-Ang)
        XX     -53.7083     XY       0.3648     YY     -42.1609
        XZ      -0.0957     YZ       1.4632     ZZ     -48.8392

 Total job time:  156.77s(wall), 155.08s(cpu)
        *  Thank you very much for using Q-Chem.  Have a nice day.  *
