 Q-Chem 5.4, Q-Chem, Inc., Pleasanton, CA (2021)
 Q-Chem 5.4.0 for Intel X86 EM64T Linux

User input:
--------------------------------------------------------------
$molecule
0 1
C	0.004069	-0.576309	0.012353
C	0.004069	0.287291	1.111753
C	0.004169	1.671191	0.789053
H	0.004069	-0.081509	2.148453
C	0.004169	1.891891	-0.600147
S	0.004069	0.366091	-1.474447
C	0.004169	2.758991	1.826953
H	0.004169	2.333291	2.849053
H	-0.888231	3.413291	1.738553
H	0.896569	3.413191	1.738553
C	0.004069	-2.017009	0.012353
H	-0.823331	-2.017209	0.706453
H	0.530569	-2.720809	0.639953
H	-0.604731	-2.535909	-0.713147
H	0.004169	2.841091	-1.149247
$end

$rem
JOBTYPE		SP
EXCHANGE	HF
CORRELATION	pRIMP2
BASIS		cc-pvtz
METHOD		rimp2
AUX_BASIS	rimp2-cc-pvtz
SOLVENT_METHOD	PCM
PURECART	11111
SYMMETRY	false
MEM_TOTAL	110000
SCF_CONVERGENCE = 6
THRESH=10
$end

$solvent
dielectric 4.90
$end
--------------------------------------------------------------

   10    -629.4238287617      5.96e-07  Convergence criterion met
 Total energy in the final basis set =     -629.4238287617
        RIMP2         total energy =      -630.6006664423 a.u.
 Total job time:  156.89s(wall), 154.92s(cpu)
        *  Thank you very much for using Q-Chem.  Have a nice day.  *
 Q-Chem 5.4, Q-Chem, Inc., Pleasanton, CA (2021)
 Q-Chem 5.4.0 for Intel X86 EM64T Linux

User input:
--------------------------------------------------------------
$molecule
0 1
C	0.004069	-0.576309	0.012353
C	0.004069	0.287291	1.111753
C	0.004169	1.671191	0.789053
H	0.004069	-0.081509	2.148453
C	0.004169	1.891891	-0.600147
S	0.004069	0.366091	-1.474447
C	0.004169	2.758991	1.826953
H	0.004169	2.333291	2.849053
H	-0.888231	3.413291	1.738553
H	0.896569	3.413191	1.738553
C	0.004069	-2.017009	0.012353
H	-0.823331	-2.017209	0.706453
H	0.530569	-2.720809	0.639953
H	-0.604731	-2.535909	-0.713147
H	0.004169	2.841091	-1.149247
$end

$rem
JOBTYPE		SP
EXCHANGE	HF
CORRELATION	pRIMP2
BASIS		cc-pvtz
METHOD		rimp2
AUX_BASIS	rimp2-cc-pvtz
SOLVENT_METHOD	PCM
PURECART	11111
SYMMETRY	false
MEM_TOTAL	110000
SCF_CONVERGENCE = 6
THRESH=10
$end

$solvent
dielectric 4.90
$end
--------------------------------------------------------------

             Standard Nuclear Orientation (Angstroms)
    I     Atom           X                Y                Z
 ----------------------------------------------------------------
    1      C       0.0040690000    -0.5763090000     0.0123530000
    2      C       0.0040690000     0.2872910000     1.1117530000
    3      C       0.0041690000     1.6711910000     0.7890530000
    4      H       0.0040690000    -0.0815090000     2.1484530000
    5      C       0.0041690000     1.8918910000    -0.6001470000
    6      S       0.0040690000     0.3660910000    -1.4744470000
    7      C       0.0041690000     2.7589910000     1.8269530000
    8      H       0.0041690000     2.3332910000     2.8490530000
    9      H      -0.8882310000     3.4132910000     1.7385530000
   10      H       0.8965690000     3.4131910000     1.7385530000
   11      C       0.0040690000    -2.0170090000     0.0123530000
   12      H      -0.8233310000    -2.0172090000     0.7064530000
   13      H       0.5305690000    -2.7208090000     0.6399530000
   14      H      -0.6047310000    -2.5359090000    -0.7131470000
   15      H       0.0041690000     2.8410910000    -1.1492470000
 ----------------------------------------------------------------

   10    -629.4238287617      5.96e-07  Convergence criterion met
 Total energy in the final basis set =     -629.4238287617
        RIMP2         total energy =      -630.6006664423 a.u.

                    Orbital Energies (a.u.)
 --------------------------------------------------------------

 Alpha MOs
 -- Occupied --
-91.9779 -11.2824 -11.2514 -11.2472 -11.2268 -11.2267 -11.2191  -8.9776
 -6.6586  -6.6581  -6.6575  -1.1603  -1.0550  -0.9985  -0.9406  -0.8835
 -0.7425  -0.7209  -0.6496  -0.5888  -0.5740  -0.5663  -0.5595  -0.5437
 -0.5085  -0.4900  -0.4663  -0.4501  -0.3373  -0.2938

          Ground-State Mulliken Net Atomic Charges

     Atom                 Charge (a.u.)
  ----------------------------------------
      1 C                     0.070038
      2 C                    -0.288874
      3 C                     0.040140
      4 H                     0.176199
      5 C                    -0.269134
      6 S                    -0.002531
      7 C                    -0.275161
      8 H                     0.101219
      9 H                     0.107129
     10 H                     0.107309
     11 C                    -0.383781
     12 H                     0.136100
     13 H                     0.152049
     14 H                     0.136768
     15 H                     0.192531
  ----------------------------------------
  Sum of atomic charges =     0.000000

                    Cartesian Multipole Moments
 -----------------------------------------------------------------
    Charge (ESU x 10^10)
                -0.0000
    Dipole Moment (Debye)
         X      -0.5547      Y      -0.4758      Z       1.8689
       Tot       2.0068
    Quadrupole Moments (Debye-Ang)
        XX     -54.1042     XY       1.1611     YY     -42.0180
        XZ       0.2795     YZ      -0.7123     ZZ     -48.6701

 Total job time:  157.03s(wall), 155.20s(cpu)
        *  Thank you very much for using Q-Chem.  Have a nice day.  *
