 Q-Chem 5.4, Q-Chem, Inc., Pleasanton, CA (2021)
 Q-Chem 5.4.0 for Intel X86 EM64T Linux

User input:
--------------------------------------------------------------
$molecule
0 1
C	-0.231734	-0.535397	0.010154
C	0.063666	0.276103	1.109554
C	0.536966	1.576503	0.786854
H	-0.062434	-0.070397	2.146254
C	0.612466	1.783903	-0.602346
S	0.090566	0.350203	-1.476646
C	0.909066	2.598703	1.824754
H	0.763466	2.198703	2.846854
H	0.294266	3.518703	1.736354
H	1.971466	2.908303	1.736354
C	-0.231734	-1.976097	0.010154
H	-0.419434	-1.975797	1.073754
H	-1.038434	-2.679897	-0.132146
H	0.700966	-2.494997	0.174654
H	0.937166	2.675903	-1.151446
$end

$rem
JOBTYPE		SP
EXCHANGE	HF
CORRELATION	pRIMP2
BASIS		cc-pvtz
METHOD		rimp2
AUX_BASIS	rimp2-cc-pvtz
SOLVENT_METHOD	PCM
PURECART	11111
SYMMETRY	false
MEM_TOTAL	110000
SCF_CONVERGENCE = 6
THRESH=10
$end

$solvent
dielectric 4.90
$end
--------------------------------------------------------------

   10    -629.4179952124      4.94e-07  Convergence criterion met
 Total energy in the final basis set =     -629.4179952124
        RIMP2         total energy =      -630.5975538843 a.u.
 Total job time:  158.01s(wall), 156.45s(cpu)
        *  Thank you very much for using Q-Chem.  Have a nice day.  *
 Q-Chem 5.4, Q-Chem, Inc., Pleasanton, CA (2021)
 Q-Chem 5.4.0 for Intel X86 EM64T Linux

User input:
--------------------------------------------------------------
$molecule
0 1
C	-0.231734	-0.535397	0.010154
C	0.063666	0.276103	1.109554
C	0.536966	1.576503	0.786854
H	-0.062434	-0.070397	2.146254
C	0.612466	1.783903	-0.602346
S	0.090566	0.350203	-1.476646
C	0.909066	2.598703	1.824754
H	0.763466	2.198703	2.846854
H	0.294266	3.518703	1.736354
H	1.971466	2.908303	1.736354
C	-0.231734	-1.976097	0.010154
H	-0.419434	-1.975797	1.073754
H	-1.038434	-2.679897	-0.132146
H	0.700966	-2.494997	0.174654
H	0.937166	2.675903	-1.151446
$end

$rem
JOBTYPE		SP
EXCHANGE	HF
CORRELATION	pRIMP2
BASIS		cc-pvtz
METHOD		rimp2
AUX_BASIS	rimp2-cc-pvtz
SOLVENT_METHOD	PCM
PURECART	11111
SYMMETRY	false
MEM_TOTAL	110000
SCF_CONVERGENCE = 6
THRESH=10
$end

$solvent
dielectric 4.90
$end
--------------------------------------------------------------

             Standard Nuclear Orientation (Angstroms)
    I     Atom           X                Y                Z
 ----------------------------------------------------------------
    1      C      -0.2317340000    -0.5353970000     0.0101540000
    2      C       0.0636660000     0.2761030000     1.1095540000
    3      C       0.5369660000     1.5765030000     0.7868540000
    4      H      -0.0624340000    -0.0703970000     2.1462540000
    5      C       0.6124660000     1.7839030000    -0.6023460000
    6      S       0.0905660000     0.3502030000    -1.4766460000
    7      C       0.9090660000     2.5987030000     1.8247540000
    8      H       0.7634660000     2.1987030000     2.8468540000
    9      H       0.2942660000     3.5187030000     1.7363540000
   10      H       1.9714660000     2.9083030000     1.7363540000
   11      C      -0.2317340000    -1.9760970000     0.0101540000
   12      H      -0.4194340000    -1.9757970000     1.0737540000
   13      H      -1.0384340000    -2.6798970000    -0.1321460000
   14      H       0.7009660000    -2.4949970000     0.1746540000
   15      H       0.9371660000     2.6759030000    -1.1514460000
 ----------------------------------------------------------------

   10    -629.4179952124      4.94e-07  Convergence criterion met
 Total energy in the final basis set =     -629.4179952124
        RIMP2         total energy =      -630.5975538843 a.u.

                    Orbital Energies (a.u.)
 --------------------------------------------------------------

 Alpha MOs
 -- Occupied --
-91.9741 -11.2748 -11.2595 -11.2473 -11.2361 -11.2276 -11.2156  -8.9744
 -6.6553  -6.6547  -6.6542  -1.1621  -1.0540  -0.9996  -0.9390  -0.8844
 -0.7426  -0.7249  -0.6476  -0.5920  -0.5784  -0.5661  -0.5592  -0.5420
 -0.5114  -0.4838  -0.4671  -0.4356  -0.3379  -0.3040

          Ground-State Mulliken Net Atomic Charges

     Atom                 Charge (a.u.)
  ----------------------------------------
      1 C                     0.042046
      2 C                    -0.271414
      3 C                     0.039656
      4 H                     0.177216
      5 C                    -0.249103
      6 S                    -0.006137
      7 C                    -0.271444
      8 H                     0.101218
      9 H                     0.107031
     10 H                     0.107126
     11 C                    -0.364278
     12 H                     0.117057
     13 H                     0.148179
     14 H                     0.129606
     15 H                     0.193240
  ----------------------------------------
  Sum of atomic charges =     0.000000

                    Cartesian Multipole Moments
 -----------------------------------------------------------------
    Charge (ESU x 10^10)
                -0.0000
    Dipole Moment (Debye)
         X       0.4577      Y      -0.0202      Z       2.1669
       Tot       2.2148
    Quadrupole Moments (Debye-Ang)
        XX     -52.6971     XY       3.2207     YY     -43.3380
        XZ       0.0346     YZ      -1.0578     ZZ     -48.9065

 Total job time:  158.07s(wall), 157.00s(cpu)
        *  Thank you very much for using Q-Chem.  Have a nice day.  *
