 Q-Chem 5.4, Q-Chem, Inc., Pleasanton, CA (2021)
 Q-Chem 5.4.0 for Intel X86 EM64T Linux

User input:
--------------------------------------------------------------
$molecule
0 1
C	-0.515557	-0.333974	0.017710
C	0.146043	0.221126	1.117110
C	1.206143	1.110626	0.794410
H	-0.136457	-0.015974	2.153810
C	1.375243	1.252426	-0.594790
S	0.206343	0.271726	-1.469090
C	2.039443	1.809826	1.832310
H	1.713343	1.536226	2.854410
H	1.967043	2.914026	1.743910
H	3.114243	1.546726	1.743910
C	-0.515557	-1.774674	0.017710
H	-1.342857	-1.774374	-0.676590
H	0.011043	-2.478474	-0.609790
H	-1.124357	-2.293574	0.743310
H	2.102343	1.862626	-1.143890
$end

$rem
JOBTYPE		SP
EXCHANGE	HF
CORRELATION	pRIMP2
BASIS		cc-pvtz
METHOD		rimp2
AUX_BASIS	rimp2-cc-pvtz
SOLVENT_METHOD	PCM
PURECART	11111
SYMMETRY	false
MEM_TOTAL	110000
SCF_CONVERGENCE = 6
THRESH=10
$end

$solvent
dielectric 4.90
$end
--------------------------------------------------------------

             Standard Nuclear Orientation (Angstroms)
    I     Atom           X                Y                Z
 ----------------------------------------------------------------
    1      C      -0.5155570000    -0.3339740000     0.0177100000
    2      C       0.1460430000     0.2211260000     1.1171100000
    3      C       1.2061430000     1.1106260000     0.7944100000
    4      H      -0.1364570000    -0.0159740000     2.1538100000
    5      C       1.3752430000     1.2524260000    -0.5947900000
    6      S       0.2063430000     0.2717260000    -1.4690900000
    7      C       2.0394430000     1.8098260000     1.8323100000
    8      H       1.7133430000     1.5362260000     2.8544100000
    9      H       1.9670430000     2.9140260000     1.7439100000
   10      H       3.1142430000     1.5467260000     1.7439100000
   11      C      -0.5155570000    -1.7746740000     0.0177100000
   12      H      -1.3428570000    -1.7743740000    -0.6765900000
   13      H       0.0110430000    -2.4784740000    -0.6097900000
   14      H      -1.1243570000    -2.2935740000     0.7433100000
   15      H       2.1023430000     1.8626260000    -1.1438900000
 ----------------------------------------------------------------

   11    -629.3653371198      4.34e-07  Convergence criterion met
 Total energy in the final basis set =     -629.3653371198
        RIMP2         total energy =      -630.5535764097 a.u.

                    Orbital Energies (a.u.)
 --------------------------------------------------------------

 Alpha MOs
 -- Occupied --
-91.9768 -11.2745 -11.2515 -11.2484 -11.2433 -11.2280 -11.2078  -8.9773
 -6.6582  -6.6574  -6.6570  -1.1678  -1.0541  -0.9959  -0.9428  -0.8813
 -0.7505  -0.7255  -0.6421  -0.5878  -0.5758  -0.5737  -0.5505  -0.5444
 -0.5172  -0.4793  -0.4543  -0.4378  -0.3363  -0.2938

          Ground-State Mulliken Net Atomic Charges

     Atom                 Charge (a.u.)
  ----------------------------------------
      1 C                    -0.080627
      2 C                    -0.157468
      3 C                     0.005926
      4 H                     0.183329
      5 C                    -0.204144
      6 S                     0.005668
      7 C                    -0.269313
      8 H                     0.101753
      9 H                     0.106620
     10 H                     0.104679
     11 C                    -0.382186
     12 H                     0.115798
     13 H                     0.151263
     14 H                     0.121864
     15 H                     0.196839
  ----------------------------------------
  Sum of atomic charges =     0.000000

                    Cartesian Multipole Moments
 -----------------------------------------------------------------
    Charge (ESU x 10^10)
                -0.0000
    Dipole Moment (Debye)
         X       1.4403      Y       0.2738      Z       1.3172
       Tot       1.9709
    Quadrupole Moments (Debye-Ang)
        XX     -49.0115     XY       5.3997     YY     -48.2732
        XZ      -0.4004     YZ       0.6561     ZZ     -48.0341

 Total job time:  171.31s(wall), 169.22s(cpu)
        *  Thank you very much for using Q-Chem.  Have a nice day.  *
