 Q-Chem 5.4, Q-Chem, Inc., Pleasanton, CA (2021)
 Q-Chem 5.4.0 for Intel X86 EM64T Linux

User input:
--------------------------------------------------------------
$molecule
0 1
C	-0.056467	-0.573727	0.019119
C	0.018833	0.286573	1.118519
C	0.139433	1.665273	0.795819
H	-0.013267	-0.080827	2.155219
C	0.158733	1.885073	-0.593381
S	0.025733	0.365073	-1.467681
C	0.234333	2.748873	1.833719
H	0.197233	2.324773	2.855819
H	-0.597667	3.478373	1.745319
H	1.180333	3.322873	1.745319
C	-0.056467	-2.014427	0.019119
H	-0.750567	-2.014627	-0.808281
H	-0.684067	-2.718227	0.545619
H	0.669033	-2.533327	-0.589681
H	0.241433	2.830673	-1.142481
$end

$rem
JOBTYPE		SP
EXCHANGE	HF
CORRELATION	pRIMP2
BASIS		cc-pvtz
METHOD		rimp2
AUX_BASIS	rimp2-cc-pvtz
SOLVENT_METHOD	PCM
PURECART	11111
SYMMETRY	false
MEM_TOTAL	110000
SCF_CONVERGENCE = 6
THRESH=10
$end

$solvent
dielectric 4.90
$end
--------------------------------------------------------------

             Standard Nuclear Orientation (Angstroms)
    I     Atom           X                Y                Z
 ----------------------------------------------------------------
    1      C      -0.0564670000    -0.5737270000     0.0191190000
    2      C       0.0188330000     0.2865730000     1.1185190000
    3      C       0.1394330000     1.6652730000     0.7958190000
    4      H      -0.0132670000    -0.0808270000     2.1552190000
    5      C       0.1587330000     1.8850730000    -0.5933810000
    6      S       0.0257330000     0.3650730000    -1.4676810000
    7      C       0.2343330000     2.7488730000     1.8337190000
    8      H       0.1972330000     2.3247730000     2.8558190000
    9      H      -0.5976670000     3.4783730000     1.7453190000
   10      H       1.1803330000     3.3228730000     1.7453190000
   11      C      -0.0564670000    -2.0144270000     0.0191190000
   12      H      -0.7505670000    -2.0146270000    -0.8082810000
   13      H      -0.6840670000    -2.7182270000     0.5456190000
   14      H       0.6690330000    -2.5333270000    -0.5896810000
   15      H       0.2414330000     2.8306730000    -1.1424810000
 ----------------------------------------------------------------

   10    -629.4215668475      6.05e-07  Convergence criterion met
 Total energy in the final basis set =     -629.4215668475
        RIMP2         total energy =      -630.5981220893 a.u.

                    Orbital Energies (a.u.)
 --------------------------------------------------------------

 Alpha MOs
 -- Occupied --
-91.9796 -11.2790 -11.2548 -11.2468 -11.2266 -11.2266 -11.2180  -8.9795
 -6.6605  -6.6599  -6.6593  -1.1606  -1.0555  -0.9957  -0.9455  -0.8818
 -0.7465  -0.7182  -0.6486  -0.5904  -0.5751  -0.5657  -0.5534  -0.5472
 -0.5084  -0.4886  -0.4651  -0.4506  -0.3391  -0.2967

          Ground-State Mulliken Net Atomic Charges

     Atom                 Charge (a.u.)
  ----------------------------------------
      1 C                     0.048724
      2 C                    -0.271993
      3 C                     0.037618
      4 H                     0.180590
      5 C                    -0.259613
      6 S                    -0.004381
      7 C                    -0.273721
      8 H                     0.101568
      9 H                     0.106992
     10 H                     0.107172
     11 C                    -0.374084
     12 H                     0.120109
     13 H                     0.157722
     14 H                     0.128720
     15 H                     0.194578
  ----------------------------------------
  Sum of atomic charges =     0.000000

                    Cartesian Multipole Moments
 -----------------------------------------------------------------
    Charge (ESU x 10^10)
                -0.0000
    Dipole Moment (Debye)
         X      -0.3045      Y      -0.2486      Z       0.9402
       Tot       1.0191
    Quadrupole Moments (Debye-Ang)
        XX     -53.8806     XY       1.8280     YY     -42.0114
        XZ      -0.2783     YZ       1.1954     ZZ     -48.7543

 Total job time:  157.72s(wall), 157.10s(cpu)
        *  Thank you very much for using Q-Chem.  Have a nice day.  *
