 Q-Chem 5.4, Q-Chem, Inc., Pleasanton, CA (2021)
 Q-Chem 5.4.0 for Intel X86 EM64T Linux

User input:
--------------------------------------------------------------
$molecule
0 1
C	-0.130752	-0.566718	0.014458
C	0.019248	0.283782	1.113858
C	0.259548	1.646682	0.791158
H	-0.044852	-0.079418	2.150558
C	0.297948	1.863982	-0.598042
S	0.032948	0.361382	-1.472342
C	0.448448	2.717882	1.829058
H	0.374548	2.298682	2.851158
H	-0.316752	3.517182	1.740658
H	1.440948	3.207182	1.740658
C	0.119448	-1.985518	0.014458
H	-0.944252	-2.172718	0.014358
H	0.241648	-2.678618	-0.804742
H	0.209548	-2.496618	0.961558
H	0.462748	2.798682	-1.147142
$end

$rem
JOBTYPE		SP
EXCHANGE	HF
CORRELATION	pRIMP2
BASIS		cc-pvtz
METHOD		rimp2
AUX_BASIS	rimp2-cc-pvtz
SOLVENT_METHOD	PCM
PURECART	11111
SYMMETRY	false
MEM_TOTAL	110000
SCF_CONVERGENCE = 6
THRESH=10
$end

$solvent
dielectric 4.90
$end
--------------------------------------------------------------

             Standard Nuclear Orientation (Angstroms)
    I     Atom           X                Y                Z
 ----------------------------------------------------------------
    1      C      -0.1307520000    -0.5667180000     0.0144580000
    2      C       0.0192480000     0.2837820000     1.1138580000
    3      C       0.2595480000     1.6466820000     0.7911580000
    4      H      -0.0448520000    -0.0794180000     2.1505580000
    5      C       0.2979480000     1.8639820000    -0.5980420000
    6      S       0.0329480000     0.3613820000    -1.4723420000
    7      C       0.4484480000     2.7178820000     1.8290580000
    8      H       0.3745480000     2.2986820000     2.8511580000
    9      H      -0.3167520000     3.5171820000     1.7406580000
   10      H       1.4409480000     3.2071820000     1.7406580000
   11      C       0.1194480000    -1.9855180000     0.0144580000
   12      H      -0.9442520000    -2.1727180000     0.0143580000
   13      H       0.2416480000    -2.6786180000    -0.8047420000
   14      H       0.2095480000    -2.4966180000     0.9615580000
   15      H       0.4627480000     2.7986820000    -1.1471420000
 ----------------------------------------------------------------

   10    -629.4126278461      6.33e-07  Convergence criterion met
 Total energy in the final basis set =     -629.4126278461
        RIMP2         total energy =      -630.5909697089 a.u.

                    Orbital Energies (a.u.)
 --------------------------------------------------------------

 Alpha MOs
 -- Occupied --
-91.9768 -11.2815 -11.2513 -11.2471 -11.2265 -11.2262 -11.2190  -8.9768
 -6.6578  -6.6572  -6.6566  -1.1605  -1.0553  -0.9972  -0.9418  -0.8829
 -0.7440  -0.7195  -0.6462  -0.5880  -0.5734  -0.5719  -0.5524  -0.5452
 -0.5100  -0.4938  -0.4587  -0.4551  -0.3378  -0.2874

          Ground-State Mulliken Net Atomic Charges

     Atom                 Charge (a.u.)
  ----------------------------------------
      1 C                     0.044159
      2 C                    -0.295912
      3 C                     0.050562
      4 H                     0.177579
      5 C                    -0.274886
      6 S                     0.000683
      7 C                    -0.271687
      8 H                     0.101280
      9 H                     0.107143
     10 H                     0.106983
     11 C                    -0.378357
     12 H                     0.136557
     13 H                     0.163009
     14 H                     0.140304
     15 H                     0.192583
  ----------------------------------------
  Sum of atomic charges =     0.000000

                    Cartesian Multipole Moments
 -----------------------------------------------------------------
    Charge (ESU x 10^10)
                -0.0000
    Dipole Moment (Debye)
         X      -0.2082      Y      -0.6532      Z       1.4482
       Tot       1.6022
    Quadrupole Moments (Debye-Ang)
        XX     -54.3509     XY       2.3826     YY     -41.7877
        XZ       0.0111     YZ       0.4583     ZZ     -48.4898

 Total job time:  160.96s(wall), 156.78s(cpu)
        *  Thank you very much for using Q-Chem.  Have a nice day.  *
