 Q-Chem 5.4, Q-Chem, Inc., Pleasanton, CA (2021)
 Q-Chem 5.4.0 for Intel X86 EM64T Linux

User input:
--------------------------------------------------------------
$molecule
0 1
C	-0.231438	-0.535397	0.019883
C	0.063962	0.276103	1.119283
C	0.537262	1.576503	0.796583
H	-0.062138	-0.070397	2.155983
C	0.612762	1.783903	-0.592617
S	0.090862	0.350203	-1.466917
C	0.909362	2.598703	1.834483
H	0.763762	2.198703	2.856583
H	0.294562	3.518703	1.746083
H	1.971762	2.908303	1.746083
C	-0.231438	-1.976097	0.019883
H	-0.231338	-1.975797	-1.060117
H	0.587762	-2.679897	0.019983
H	-1.178538	-2.494997	0.019883
H	0.937462	2.675903	-1.141717
$end

$rem
JOBTYPE		SP
EXCHANGE	HF
CORRELATION	pRIMP2
BASIS		cc-pvtz
METHOD		rimp2
AUX_BASIS	rimp2-cc-pvtz
SOLVENT_METHOD	PCM
PURECART	11111
SYMMETRY	false
MEM_TOTAL	110000
SCF_CONVERGENCE = 6
THRESH=10
$end

$solvent
dielectric 4.90
$end
--------------------------------------------------------------

             Standard Nuclear Orientation (Angstroms)
    I     Atom           X                Y                Z
 ----------------------------------------------------------------
    1      C      -0.2314380000    -0.5353970000     0.0198830000
    2      C       0.0639620000     0.2761030000     1.1192830000
    3      C       0.5372620000     1.5765030000     0.7965830000
    4      H      -0.0621380000    -0.0703970000     2.1559830000
    5      C       0.6127620000     1.7839030000    -0.5926170000
    6      S       0.0908620000     0.3502030000    -1.4669170000
    7      C       0.9093620000     2.5987030000     1.8344830000
    8      H       0.7637620000     2.1987030000     2.8565830000
    9      H       0.2945620000     3.5187030000     1.7460830000
   10      H       1.9717620000     2.9083030000     1.7460830000
   11      C      -0.2314380000    -1.9760970000     0.0198830000
   12      H      -0.2313380000    -1.9757970000    -1.0601170000
   13      H       0.5877620000    -2.6798970000     0.0199830000
   14      H      -1.1785380000    -2.4949970000     0.0198830000
   15      H       0.9374620000     2.6759030000    -1.1417170000
 ----------------------------------------------------------------

   10    -629.4114206075      5.33e-07  Convergence criterion met
 Total energy in the final basis set =     -629.4114206075
        RIMP2         total energy =      -630.5913315207 a.u.

                    Orbital Energies (a.u.)
 --------------------------------------------------------------

 Alpha MOs
 -- Occupied --
-91.9799 -11.2707 -11.2608 -11.2472 -11.2318 -11.2270 -11.2142  -8.9799
 -6.6607  -6.6602  -6.6596  -1.1621  -1.0549  -0.9950  -0.9462  -0.8813
 -0.7487  -0.7195  -0.6476  -0.5898  -0.5763  -0.5673  -0.5527  -0.5474
 -0.5114  -0.4802  -0.4649  -0.4428  -0.3378  -0.3044

          Ground-State Mulliken Net Atomic Charges

     Atom                 Charge (a.u.)
  ----------------------------------------
      1 C                     0.030758
      2 C                    -0.260941
      3 C                     0.043175
      4 H                     0.179704
      5 C                    -0.253580
      6 S                    -0.002438
      7 C                    -0.272348
      8 H                     0.102000
      9 H                     0.106816
     10 H                     0.106470
     11 C                    -0.358153
     12 H                     0.112679
     13 H                     0.144800
     14 H                     0.125477
     15 H                     0.195582
  ----------------------------------------
  Sum of atomic charges =     0.000000

                    Cartesian Multipole Moments
 -----------------------------------------------------------------
    Charge (ESU x 10^10)
                -0.0000
    Dipole Moment (Debye)
         X       0.5718      Y       0.1478      Z       0.8945
       Tot       1.0719
    Quadrupole Moments (Debye-Ang)
        XX     -52.7389     XY       2.7484     YY     -43.4363
        XZ       0.1426     YZ       1.3942     ZZ     -48.7419

 Total job time:  157.71s(wall), 155.52s(cpu)
        *  Thank you very much for using Q-Chem.  Have a nice day.  *
