 Q-Chem 5.4, Q-Chem, Inc., Pleasanton, CA (2021)
 Q-Chem 5.4.0 for Intel X86 EM64T Linux

User input:
--------------------------------------------------------------
$molecule
0 1
C	-0.442974	-0.368930	0.004908
C	-0.517974	1.027070	0.004908
C	0.735526	1.696470	0.004708
H	-1.478574	1.563770	0.005008
C	1.817026	0.796970	0.004608
S	1.245626	-0.866130	0.004708
C	0.869626	3.193870	0.004708
H	-0.124074	3.682070	0.004808
H	1.419826	3.558570	-0.887792
H	1.420126	3.558670	0.897008
C	-1.526474	-1.318330	0.005108
H	-1.526374	-1.318330	-1.074892
H	-1.515974	-2.398330	0.005208
H	-2.541074	-0.948030	0.005208
H	2.892826	1.009570	0.004508
$end

$rem
JOBTYPE		SP
EXCHANGE	HF
CORRELATION	pRIMP2
BASIS		cc-pvtz
METHOD		rimp2
AUX_BASIS	rimp2-cc-pvtz
SOLVENT_METHOD	PCM
PURECART	11111
SYMMETRY	false
MEM_TOTAL	110000
SCF_CONVERGENCE = 6
THRESH=10
$end

$solvent
dielectric 4.90
$end
--------------------------------------------------------------

             Standard Nuclear Orientation (Angstroms)
    I     Atom           X                Y                Z
 ----------------------------------------------------------------
    1      C      -0.4429740000    -0.3689300000     0.0049080000
    2      C      -0.5179740000     1.0270700000     0.0049080000
    3      C       0.7355260000     1.6964700000     0.0047080000
    4      H      -1.4785740000     1.5637700000     0.0050080000
    5      C       1.8170260000     0.7969700000     0.0046080000
    6      S       1.2456260000    -0.8661300000     0.0047080000
    7      C       0.8696260000     3.1938700000     0.0047080000
    8      H      -0.1240740000     3.6820700000     0.0048080000
    9      H       1.4198260000     3.5585700000    -0.8877920000
   10      H       1.4201260000     3.5586700000     0.8970080000
   11      C      -1.5264740000    -1.3183300000     0.0051080000
   12      H      -1.5263740000    -1.3183300000    -1.0748920000
   13      H      -1.5159740000    -2.3983300000     0.0052080000
   14      H      -2.5410740000    -0.9480300000     0.0052080000
   15      H       2.8928260000     1.0095700000     0.0045080000
 ----------------------------------------------------------------

   10    -629.4250518166      7.04e-07  Convergence criterion met
 Total energy in the final basis set =     -629.4250518166
        RIMP2         total energy =      -630.6001560688 a.u.

                    Orbital Energies (a.u.)
 --------------------------------------------------------------

 Alpha MOs
 -- Occupied --
-91.9777 -11.2866 -11.2482 -11.2468 -11.2264 -11.2230 -11.2227  -8.9775
 -6.6586  -6.6580  -6.6574  -1.1602  -1.0564  -0.9975  -0.9419  -0.8828
 -0.7437  -0.7186  -0.6478  -0.5895  -0.5751  -0.5704  -0.5525  -0.5458
 -0.5077  -0.4935  -0.4655  -0.4564  -0.3384  -0.2882

          Ground-State Mulliken Net Atomic Charges

     Atom                 Charge (a.u.)
  ----------------------------------------
      1 C                     0.068827
      2 C                    -0.310105
      3 C                     0.049291
      4 H                     0.176394
      5 C                    -0.281003
      6 S                    -0.002314
      7 C                    -0.274764
      8 H                     0.101305
      9 H                     0.107442
     10 H                     0.107277
     11 C                    -0.384788
     12 H                     0.144555
     13 H                     0.163442
     14 H                     0.141947
     15 H                     0.192494
  ----------------------------------------
  Sum of atomic charges =     0.000000

                    Cartesian Multipole Moments
 -----------------------------------------------------------------
    Charge (ESU x 10^10)
                -0.0000
    Dipole Moment (Debye)
         X      -1.5280      Y       0.5300      Z      -0.7481
       Tot       1.7819
    Quadrupole Moments (Debye-Ang)
        XX     -45.1770     XY       3.5147     YY     -45.0852
        XZ       1.1987     YZ       1.0122     ZZ     -54.4151

 Total job time:  160.91s(wall), 157.24s(cpu)
        *  Thank you very much for using Q-Chem.  Have a nice day.  *
