 Q-Chem 5.4, Q-Chem, Inc., Pleasanton, CA (2021)
 Q-Chem 5.4.0 for Intel X86 EM64T Linux

User input:
--------------------------------------------------------------
$molecule
0 1
C	-0.340296	-0.485419	0.010276
C	0.091504	0.262481	1.109676
C	0.783504	1.460981	0.786976
H	-0.092896	-0.056919	2.146376
C	0.893804	1.652081	-0.602224
S	0.130904	0.330681	-1.476524
C	1.327404	2.402981	1.824876
H	1.114604	2.034381	2.846976
H	0.881704	3.415781	1.736476
H	2.427404	2.523381	1.736476
C	-0.340296	-1.926119	0.010276
H	0.029004	-1.926319	1.025176
H	0.429504	-2.629919	-0.269824
H	-1.230296	-2.445019	0.334176
H	1.368504	2.474081	-1.151324
$end

$rem
JOBTYPE		SP
EXCHANGE	HF
CORRELATION	pRIMP2
BASIS		cc-pvtz
METHOD		rimp2
AUX_BASIS	rimp2-cc-pvtz
SOLVENT_METHOD	PCM
PURECART	11111
SYMMETRY	false
MEM_TOTAL	110000
SCF_CONVERGENCE = 6
THRESH=10
$end

$solvent
dielectric 4.90
$end
--------------------------------------------------------------

             Standard Nuclear Orientation (Angstroms)
    I     Atom           X                Y                Z
 ----------------------------------------------------------------
    1      C      -0.3402960000    -0.4854190000     0.0102760000
    2      C       0.0915040000     0.2624810000     1.1096760000
    3      C       0.7835040000     1.4609810000     0.7869760000
    4      H      -0.0928960000    -0.0569190000     2.1463760000
    5      C       0.8938040000     1.6520810000    -0.6022240000
    6      S       0.1309040000     0.3306810000    -1.4765240000
    7      C       1.3274040000     2.4029810000     1.8248760000
    8      H       1.1146040000     2.0343810000     2.8469760000
    9      H       0.8817040000     3.4157810000     1.7364760000
   10      H       2.4274040000     2.5233810000     1.7364760000
   11      C      -0.3402960000    -1.9261190000     0.0102760000
   12      H       0.0290040000    -1.9263190000     1.0251760000
   13      H       0.4295040000    -2.6299190000    -0.2698240000
   14      H      -1.2302960000    -2.4450190000     0.3341760000
   15      H       1.3685040000     2.4740810000    -1.1513240000
 ----------------------------------------------------------------

   10    -629.4022489263      5.17e-07  Convergence criterion met
 Total energy in the final basis set =     -629.4022489263
        RIMP2         total energy =      -630.5847915694 a.u.

                    Orbital Energies (a.u.)
 --------------------------------------------------------------

 Alpha MOs
 -- Occupied --
-91.9756 -11.2711 -11.2612 -11.2475 -11.2363 -11.2277 -11.2124  -8.9758
 -6.6567  -6.6560  -6.6556  -1.1638  -1.0540  -0.9995  -0.9375  -0.8838
 -0.7430  -0.7260  -0.6466  -0.5893  -0.5785  -0.5707  -0.5562  -0.5422
 -0.5136  -0.4736  -0.4686  -0.4396  -0.3353  -0.3011

          Ground-State Mulliken Net Atomic Charges

     Atom                 Charge (a.u.)
  ----------------------------------------
      1 C                     0.018094
      2 C                    -0.250240
      3 C                     0.030255
      4 H                     0.175831
      5 C                    -0.243515
      6 S                    -0.000328
      7 C                    -0.270797
      8 H                     0.101268
      9 H                     0.107098
     10 H                     0.106349
     11 C                    -0.373065
     12 H                     0.129507
     13 H                     0.156367
     14 H                     0.120374
     15 H                     0.192802
  ----------------------------------------
  Sum of atomic charges =     0.000000

                    Cartesian Multipole Moments
 -----------------------------------------------------------------
    Charge (ESU x 10^10)
                -0.0000
    Dipole Moment (Debye)
         X       1.0849      Y       0.0139      Z       2.1463
       Tot       2.4050
    Quadrupole Moments (Debye-Ang)
        XX     -51.9375     XY       3.1613     YY     -44.8791
        XZ      -0.3125     YZ      -0.9893     ZZ     -48.6583

 Total job time:  160.40s(wall), 158.61s(cpu)
        *  Thank you very much for using Q-Chem.  Have a nice day.  *
