 Q-Chem 5.4, Q-Chem, Inc., Pleasanton, CA (2021)
 Q-Chem 5.4.0 for Intel X86 EM64T Linux

User input:
--------------------------------------------------------------
$molecule
0 1
C	-0.343933	-0.485419	0.016151
C	0.087867	0.262481	1.115551
C	0.779867	1.460981	0.792851
H	-0.096533	-0.056919	2.152251
C	0.890167	1.652081	-0.596349
S	0.127267	0.330681	-1.470649
C	1.323767	2.402981	1.830751
H	1.110967	2.034381	2.852851
H	0.878067	3.415781	1.742351
H	2.423767	2.523381	1.742351
C	-0.343933	-1.926119	0.016151
H	0.670967	-1.926319	-0.353149
H	-0.624033	-2.629919	-0.753649
H	-0.020033	-2.445019	0.906151
H	1.364867	2.474081	-1.145449
$end

$rem
JOBTYPE		SP
EXCHANGE	HF
CORRELATION	pRIMP2
BASIS		cc-pvtz
METHOD		rimp2
AUX_BASIS	rimp2-cc-pvtz
SOLVENT_METHOD	PCM
PURECART	11111
SYMMETRY	false
MEM_TOTAL	110000
SCF_CONVERGENCE = 6
THRESH=10
$end

$solvent
dielectric 4.90
$end
--------------------------------------------------------------

   10    -629.4091160109      6.74e-07  Convergence criterion met
 Total energy in the final basis set =     -629.4091160109
        RIMP2         total energy =      -630.5880558342 a.u.
 Total job time:  158.78s(wall), 158.12s(cpu)
        *  Thank you very much for using Q-Chem.  Have a nice day.  *
 Q-Chem 5.4, Q-Chem, Inc., Pleasanton, CA (2021)
 Q-Chem 5.4.0 for Intel X86 EM64T Linux

User input:
--------------------------------------------------------------
$molecule
0 1
C	-0.343933	-0.485419	0.016151
C	0.087867	0.262481	1.115551
C	0.779867	1.460981	0.792851
H	-0.096533	-0.056919	2.152251
C	0.890167	1.652081	-0.596349
S	0.127267	0.330681	-1.470649
C	1.323767	2.402981	1.830751
H	1.110967	2.034381	2.852851
H	0.878067	3.415781	1.742351
H	2.423767	2.523381	1.742351
C	-0.343933	-1.926119	0.016151
H	0.670967	-1.926319	-0.353149
H	-0.624033	-2.629919	-0.753649
H	-0.020033	-2.445019	0.906151
H	1.364867	2.474081	-1.145449
$end

$rem
JOBTYPE		SP
EXCHANGE	HF
CORRELATION	pRIMP2
BASIS		cc-pvtz
METHOD		rimp2
AUX_BASIS	rimp2-cc-pvtz
SOLVENT_METHOD	PCM
PURECART	11111
SYMMETRY	false
MEM_TOTAL	110000
SCF_CONVERGENCE = 6
THRESH=10
$end

$solvent
dielectric 4.90
$end
--------------------------------------------------------------

             Standard Nuclear Orientation (Angstroms)
    I     Atom           X                Y                Z
 ----------------------------------------------------------------
    1      C      -0.3439330000    -0.4854190000     0.0161510000
    2      C       0.0878670000     0.2624810000     1.1155510000
    3      C       0.7798670000     1.4609810000     0.7928510000
    4      H      -0.0965330000    -0.0569190000     2.1522510000
    5      C       0.8901670000     1.6520810000    -0.5963490000
    6      S       0.1272670000     0.3306810000    -1.4706490000
    7      C       1.3237670000     2.4029810000     1.8307510000
    8      H       1.1109670000     2.0343810000     2.8528510000
    9      H       0.8780670000     3.4157810000     1.7423510000
   10      H       2.4237670000     2.5233810000     1.7423510000
   11      C      -0.3439330000    -1.9261190000     0.0161510000
   12      H       0.6709670000    -1.9263190000    -0.3531490000
   13      H      -0.6240330000    -2.6299190000    -0.7536490000
   14      H      -0.0200330000    -2.4450190000     0.9061510000
   15      H       1.3648670000     2.4740810000    -1.1454490000
 ----------------------------------------------------------------

   10    -629.4091160109      6.74e-07  Convergence criterion met
 Total energy in the final basis set =     -629.4091160109
        RIMP2         total energy =      -630.5880558342 a.u.

                    Orbital Energies (a.u.)
 --------------------------------------------------------------

 Alpha MOs
 -- Occupied --
-91.9749 -11.2801 -11.2555 -11.2477 -11.2287 -11.2271 -11.2202  -8.9754
 -6.6563  -6.6557  -6.6551  -1.1644  -1.0569  -0.9960  -0.9418  -0.8814
 -0.7464  -0.7207  -0.6462  -0.5890  -0.5804  -0.5666  -0.5507  -0.5472
 -0.5077  -0.4946  -0.4623  -0.4525  -0.3399  -0.2894

          Ground-State Mulliken Net Atomic Charges

     Atom                 Charge (a.u.)
  ----------------------------------------
      1 C                     0.053801
      2 C                    -0.317972
      3 C                     0.060149
      4 H                     0.177787
      5 C                    -0.266445
      6 S                    -0.006390
      7 C                    -0.270194
      8 H                     0.101586
      9 H                     0.107831
     10 H                     0.106779
     11 C                    -0.370076
     12 H                     0.144266
     13 H                     0.150623
     14 H                     0.135653
     15 H                     0.192602
  ----------------------------------------
  Sum of atomic charges =     0.000000

                    Cartesian Multipole Moments
 -----------------------------------------------------------------
    Charge (ESU x 10^10)
                -0.0000
    Dipole Moment (Debye)
         X       1.3525      Y      -0.5128      Z       1.3008
       Tot       1.9454
    Quadrupole Moments (Debye-Ang)
        XX     -52.7168     XY       2.6833     YY     -44.3087
        XZ       0.3631     YZ       0.8074     ZZ     -48.5637

 Total job time:  158.15s(wall), 157.03s(cpu)
        *  Thank you very much for using Q-Chem.  Have a nice day.  *
