 Q-Chem 5.4, Q-Chem, Inc., Pleasanton, CA (2021)
 Q-Chem 5.4.0 for Intel X86 EM64T Linux

User input:
--------------------------------------------------------------
$molecule
0 1
C	-0.002217	-0.576312	0.010669
C	-0.002217	0.287288	1.110069
C	-0.002117	1.671188	0.787369
H	-0.002217	-0.081512	2.146769
C	-0.002117	1.891888	-0.601831
S	-0.002217	0.366088	-1.476131
C	-0.002117	2.758988	1.825269
H	-0.002117	2.333288	2.847369
H	-0.894517	3.413288	1.736869
H	0.890283	3.413188	1.736869
C	-0.002217	-2.017012	0.010669
H	0.367083	-2.016712	1.025569
H	-0.772017	-2.720812	0.290769
H	0.887783	-2.535912	-0.313231
H	-0.002117	2.841088	-1.150931
$end

$rem
JOBTYPE		SP
EXCHANGE	HF
CORRELATION	pRIMP2
BASIS		cc-pvtz
METHOD		rimp2
AUX_BASIS	rimp2-cc-pvtz
SOLVENT_METHOD	PCM
PURECART	11111
SYMMETRY	false
MEM_TOTAL	110000
SCF_CONVERGENCE = 6
THRESH=10
$end

$solvent
dielectric 4.90
$end
--------------------------------------------------------------

   10    -629.4248052119      5.05e-07  Convergence criterion met
 Total energy in the final basis set =     -629.4248052119
        RIMP2         total energy =      -630.6025111667 a.u.
 Total job time:  156.20s(wall), 155.00s(cpu)
        *  Thank you very much for using Q-Chem.  Have a nice day.  *
 Q-Chem 5.4, Q-Chem, Inc., Pleasanton, CA (2021)
 Q-Chem 5.4.0 for Intel X86 EM64T Linux

User input:
--------------------------------------------------------------
$molecule
0 1
C	-0.002217	-0.576312	0.010669
C	-0.002217	0.287288	1.110069
C	-0.002117	1.671188	0.787369
H	-0.002217	-0.081512	2.146769
C	-0.002117	1.891888	-0.601831
S	-0.002217	0.366088	-1.476131
C	-0.002117	2.758988	1.825269
H	-0.002117	2.333288	2.847369
H	-0.894517	3.413288	1.736869
H	0.890283	3.413188	1.736869
C	-0.002217	-2.017012	0.010669
H	0.367083	-2.016712	1.025569
H	-0.772017	-2.720812	0.290769
H	0.887783	-2.535912	-0.313231
H	-0.002117	2.841088	-1.150931
$end

$rem
JOBTYPE		SP
EXCHANGE	HF
CORRELATION	pRIMP2
BASIS		cc-pvtz
METHOD		rimp2
AUX_BASIS	rimp2-cc-pvtz
SOLVENT_METHOD	PCM
PURECART	11111
SYMMETRY	false
MEM_TOTAL	110000
SCF_CONVERGENCE = 6
THRESH=10
$end

$solvent
dielectric 4.90
$end
--------------------------------------------------------------

             Standard Nuclear Orientation (Angstroms)
    I     Atom           X                Y                Z
 ----------------------------------------------------------------
    1      C      -0.0022170000    -0.5763120000     0.0106690000
    2      C      -0.0022170000     0.2872880000     1.1100690000
    3      C      -0.0021170000     1.6711880000     0.7873690000
    4      H      -0.0022170000    -0.0815120000     2.1467690000
    5      C      -0.0021170000     1.8918880000    -0.6018310000
    6      S      -0.0022170000     0.3660880000    -1.4761310000
    7      C      -0.0021170000     2.7589880000     1.8252690000
    8      H      -0.0021170000     2.3332880000     2.8473690000
    9      H      -0.8945170000     3.4132880000     1.7368690000
   10      H       0.8902830000     3.4131880000     1.7368690000
   11      C      -0.0022170000    -2.0170120000     0.0106690000
   12      H       0.3670830000    -2.0167120000     1.0255690000
   13      H      -0.7720170000    -2.7208120000     0.2907690000
   14      H       0.8877830000    -2.5359120000    -0.3132310000
   15      H      -0.0021170000     2.8410880000    -1.1509310000
 ----------------------------------------------------------------

   10    -629.4248052119      5.05e-07  Convergence criterion met
 Total energy in the final basis set =     -629.4248052119
        RIMP2         total energy =      -630.6025111667 a.u.

                    Orbital Energies (a.u.)
 --------------------------------------------------------------

 Alpha MOs
 -- Occupied --
-91.9755 -11.2784 -11.2564 -11.2470 -11.2329 -11.2273 -11.2168  -8.9756
 -6.6565  -6.6560  -6.6554  -1.1609  -1.0541  -0.9995  -0.9399  -0.8843
 -0.7423  -0.7236  -0.6492  -0.5908  -0.5769  -0.5658  -0.5601  -0.5422
 -0.5099  -0.4862  -0.4676  -0.4400  -0.3377  -0.3022

          Ground-State Mulliken Net Atomic Charges

     Atom                 Charge (a.u.)
  ----------------------------------------
      1 C                     0.066355
      2 C                    -0.269125
      3 C                     0.030297
      4 H                     0.177667
      5 C                    -0.253174
      6 S                    -0.008338
      7 C                    -0.274109
      8 H                     0.101152
      9 H                     0.107276
     10 H                     0.107161
     11 C                    -0.376291
     12 H                     0.123000
     13 H                     0.141692
     14 H                     0.133264
     15 H                     0.193174
  ----------------------------------------
  Sum of atomic charges =     0.000000

                    Cartesian Multipole Moments
 -----------------------------------------------------------------
    Charge (ESU x 10^10)
                -0.0000
    Dipole Moment (Debye)
         X       0.2406      Y      -0.1311      Z       2.1026
       Tot       2.1204
    Quadrupole Moments (Debye-Ang)
        XX     -53.7733     XY      -0.4483     YY     -42.1509
        XZ      -0.2071     YZ      -1.0615     ZZ     -48.8982

 Total job time:  158.02s(wall), 155.90s(cpu)
        *  Thank you very much for using Q-Chem.  Have a nice day.  *
