 Q-Chem 5.4, Q-Chem, Inc., Pleasanton, CA (2021)
 Q-Chem 5.4.0 for Intel X86 EM64T Linux

User input:
--------------------------------------------------------------
$molecule
0 1
C	-0.054656	-0.573729	0.016960
C	0.020644	0.286571	1.116360
C	0.141244	1.665271	0.793660
H	-0.011456	-0.080829	2.153060
C	0.160544	1.885071	-0.595540
S	0.027544	0.365071	-1.469840
C	0.236144	2.748871	1.831560
H	0.199044	2.324771	2.853660
H	-0.595856	3.478371	1.743160
H	1.182144	3.322871	1.743160
C	-0.054656	-2.014429	0.016960
H	-0.989856	-2.014129	-0.523140
H	0.354944	-2.718229	-0.692440
H	-0.528256	-2.533329	0.837160
H	0.243244	2.830671	-1.144640
$end

$rem
JOBTYPE		SP
EXCHANGE	HF
CORRELATION	pRIMP2
BASIS		cc-pvtz
METHOD		rimp2
AUX_BASIS	rimp2-cc-pvtz
SOLVENT_METHOD	PCM
PURECART	11111
SYMMETRY	false
MEM_TOTAL	110000
SCF_CONVERGENCE = 6
THRESH=10
$end

$solvent
dielectric 4.90
$end
--------------------------------------------------------------

             Standard Nuclear Orientation (Angstroms)
    I     Atom           X                Y                Z
 ----------------------------------------------------------------
    1      C      -0.0546560000    -0.5737290000     0.0169600000
    2      C       0.0206440000     0.2865710000     1.1163600000
    3      C       0.1412440000     1.6652710000     0.7936600000
    4      H      -0.0114560000    -0.0808290000     2.1530600000
    5      C       0.1605440000     1.8850710000    -0.5955400000
    6      S       0.0275440000     0.3650710000    -1.4698400000
    7      C       0.2361440000     2.7488710000     1.8315600000
    8      H       0.1990440000     2.3247710000     2.8536600000
    9      H      -0.5958560000     3.4783710000     1.7431600000
   10      H       1.1821440000     3.3228710000     1.7431600000
   11      C      -0.0546560000    -2.0144290000     0.0169600000
   12      H      -0.9898560000    -2.0141290000    -0.5231400000
   13      H       0.3549440000    -2.7182290000    -0.6924400000
   14      H      -0.5282560000    -2.5333290000     0.8371600000
   15      H       0.2432440000     2.8306710000    -1.1446400000
 ----------------------------------------------------------------

   10    -629.4230569959      6.43e-07  Convergence criterion met
 Total energy in the final basis set =     -629.4230569959
        RIMP2         total energy =      -630.5989551285 a.u.

                    Orbital Energies (a.u.)
 --------------------------------------------------------------

 Alpha MOs
 -- Occupied --
-91.9779 -11.2826 -11.2519 -11.2469 -11.2265 -11.2256 -11.2201  -8.9778
 -6.6588  -6.6583  -6.6577  -1.1603  -1.0558  -0.9965  -0.9440  -0.8823
 -0.7454  -0.7184  -0.6475  -0.5903  -0.5755  -0.5691  -0.5502  -0.5474
 -0.5084  -0.4908  -0.4648  -0.4543  -0.3389  -0.2920

          Ground-State Mulliken Net Atomic Charges

     Atom                 Charge (a.u.)
  ----------------------------------------
      1 C                     0.047111
      2 C                    -0.276601
      3 C                     0.036610
      4 H                     0.181381
      5 C                    -0.265166
      6 S                    -0.009618
      7 C                    -0.274005
      8 H                     0.101290
      9 H                     0.107146
     10 H                     0.107274
     11 C                    -0.372656
     12 H                     0.130602
     13 H                     0.154695
     14 H                     0.138173
     15 H                     0.193764
  ----------------------------------------
  Sum of atomic charges =     0.000000

                    Cartesian Multipole Moments
 -----------------------------------------------------------------
    Charge (ESU x 10^10)
                -0.0000
    Dipole Moment (Debye)
         X      -0.5123      Y      -0.5021      Z       1.1003
       Tot       1.3135
    Quadrupole Moments (Debye-Ang)
        XX     -54.1246     XY       2.0415     YY     -41.8521
        XZ      -0.2480     YZ       1.1309     ZZ     -48.6556

 Total job time:  157.82s(wall), 157.03s(cpu)
        *  Thank you very much for using Q-Chem.  Have a nice day.  *
