 Q-Chem 5.4, Q-Chem, Inc., Pleasanton, CA (2021)
 Q-Chem 5.4.0 for Intel X86 EM64T Linux

User input:
--------------------------------------------------------------
$molecule
0 1
C	-0.121726	-0.566007	0.012108
C	0.028274	0.284493	1.111508
C	0.268574	1.647393	0.788808
H	-0.035826	-0.078707	2.148208
C	0.306974	1.864693	-0.600392
S	0.041974	0.362093	-1.474692
C	0.457474	2.718593	1.826708
H	0.383574	2.299393	2.848808
H	-0.307726	3.517893	1.738308
H	1.449974	3.207893	1.738308
C	-0.121726	-2.006707	0.012108
H	0.813474	-2.006907	0.552208
H	0.287874	-2.710507	-0.697292
H	-0.595326	-2.525607	0.832308
H	0.471774	2.799393	-1.149492
$end

$rem
JOBTYPE		SP
EXCHANGE	HF
CORRELATION	pRIMP2
BASIS		cc-pvtz
METHOD		rimp2
AUX_BASIS	rimp2-cc-pvtz
SOLVENT_METHOD	PCM
PURECART	11111
SYMMETRY	false
MEM_TOTAL	110000
SCF_CONVERGENCE = 6
THRESH=10
$end

$solvent
dielectric 4.90
$end
--------------------------------------------------------------

             Standard Nuclear Orientation (Angstroms)
    I     Atom           X                Y                Z
 ----------------------------------------------------------------
    1      C      -0.1217260000    -0.5660070000     0.0121080000
    2      C       0.0282740000     0.2844930000     1.1115080000
    3      C       0.2685740000     1.6473930000     0.7888080000
    4      H      -0.0358260000    -0.0787070000     2.1482080000
    5      C       0.3069740000     1.8646930000    -0.6003920000
    6      S       0.0419740000     0.3620930000    -1.4746920000
    7      C       0.4574740000     2.7185930000     1.8267080000
    8      H       0.3835740000     2.2993930000     2.8488080000
    9      H      -0.3077260000     3.5178930000     1.7383080000
   10      H       1.4499740000     3.2078930000     1.7383080000
   11      C      -0.1217260000    -2.0067070000     0.0121080000
   12      H       0.8134740000    -2.0069070000     0.5522080000
   13      H       0.2878740000    -2.7105070000    -0.6972920000
   14      H      -0.5953260000    -2.5256070000     0.8323080000
   15      H       0.4717740000     2.7993930000    -1.1494920000
 ----------------------------------------------------------------

   10    -629.4220110879      6.46e-07  Convergence criterion met
 Total energy in the final basis set =     -629.4220110879
        RIMP2         total energy =      -630.5987772100 a.u.

                    Orbital Energies (a.u.)
 --------------------------------------------------------------

 Alpha MOs
 -- Occupied --
-91.9780 -11.2848 -11.2494 -11.2474 -11.2267 -11.2248 -11.2205  -8.9778
 -6.6587  -6.6582  -6.6576  -1.1607  -1.0557  -0.9984  -0.9399  -0.8833
 -0.7426  -0.7200  -0.6480  -0.5905  -0.5736  -0.5717  -0.5563  -0.5440
 -0.5087  -0.4879  -0.4668  -0.4533  -0.3373  -0.2906

          Ground-State Mulliken Net Atomic Charges

     Atom                 Charge (a.u.)
  ----------------------------------------
      1 C                     0.065035
      2 C                    -0.291014
      3 C                     0.042588
      4 H                     0.175275
      5 C                    -0.277104
      6 S                    -0.000903
      7 C                    -0.273788
      8 H                     0.101143
      9 H                     0.107328
     10 H                     0.107150
     11 C                    -0.390943
     12 H                     0.145074
     13 H                     0.160592
     14 H                     0.137536
     15 H                     0.192030
  ----------------------------------------
  Sum of atomic charges =     0.000000

                    Cartesian Multipole Moments
 -----------------------------------------------------------------
    Charge (ESU x 10^10)
                -0.0000
    Dipole Moment (Debye)
         X       0.8189      Y      -0.6599      Z       1.7749
       Tot       2.0631
    Quadrupole Moments (Debye-Ang)
        XX     -54.1095     XY       0.0935     YY     -42.2150
        XZ      -0.1887     YZ      -0.2819     ZZ     -48.6409

 Total job time:  158.58s(wall), 156.40s(cpu)
        *  Thank you very much for using Q-Chem.  Have a nice day.  *
