 Q-Chem 5.4, Q-Chem, Inc., Pleasanton, CA (2021)
 Q-Chem 5.4.0 for Intel X86 EM64T Linux

User input:
--------------------------------------------------------------
$molecule
0 1
C	-0.113449	-0.566010	0.012833
C	0.036551	0.284490	1.112233
C	0.276851	1.647390	0.789533
H	-0.027549	-0.078710	2.148933
C	0.315251	1.864690	-0.599667
S	0.050251	0.362090	-1.473967
C	0.465751	2.718590	1.827433
H	0.391851	2.299390	2.849533
H	-0.299449	3.517890	1.739033
H	1.458251	3.207890	1.739033
C	-0.113449	-2.006710	0.012833
H	-1.128349	-2.006410	0.382133
H	-0.393549	-2.710510	-0.756967
H	0.210451	-2.525610	0.902833
H	0.480051	2.799390	-1.148767
$end

$rem
JOBTYPE		SP
EXCHANGE	HF
CORRELATION	pRIMP2
BASIS		cc-pvtz
METHOD		rimp2
AUX_BASIS	rimp2-cc-pvtz
SOLVENT_METHOD	PCM
PURECART	11111
SYMMETRY	false
MEM_TOTAL	110000
SCF_CONVERGENCE = 6
THRESH=10
$end

$solvent
dielectric 4.90
$end
--------------------------------------------------------------

   10    -629.4211422008      6.60e-07  Convergence criterion met
 Total energy in the final basis set =     -629.4211422008
        RIMP2         total energy =      -630.5979032184 a.u.
 Total job time:  156.26s(wall), 154.96s(cpu)
        *  Thank you very much for using Q-Chem.  Have a nice day.  *
 Q-Chem 5.4, Q-Chem, Inc., Pleasanton, CA (2021)
 Q-Chem 5.4.0 for Intel X86 EM64T Linux

User input:
--------------------------------------------------------------
$molecule
0 1
C	-0.113449	-0.566010	0.012833
C	0.036551	0.284490	1.112233
C	0.276851	1.647390	0.789533
H	-0.027549	-0.078710	2.148933
C	0.315251	1.864690	-0.599667
S	0.050251	0.362090	-1.473967
C	0.465751	2.718590	1.827433
H	0.391851	2.299390	2.849533
H	-0.299449	3.517890	1.739033
H	1.458251	3.207890	1.739033
C	-0.113449	-2.006710	0.012833
H	-1.128349	-2.006410	0.382133
H	-0.393549	-2.710510	-0.756967
H	0.210451	-2.525610	0.902833
H	0.480051	2.799390	-1.148767
$end

$rem
JOBTYPE		SP
EXCHANGE	HF
CORRELATION	pRIMP2
BASIS		cc-pvtz
METHOD		rimp2
AUX_BASIS	rimp2-cc-pvtz
SOLVENT_METHOD	PCM
PURECART	11111
SYMMETRY	false
MEM_TOTAL	110000
SCF_CONVERGENCE = 6
THRESH=10
$end

$solvent
dielectric 4.90
$end
--------------------------------------------------------------

             Standard Nuclear Orientation (Angstroms)
    I     Atom           X                Y                Z
 ----------------------------------------------------------------
    1      C      -0.1134490000    -0.5660100000     0.0128330000
    2      C       0.0365510000     0.2844900000     1.1122330000
    3      C       0.2768510000     1.6473900000     0.7895330000
    4      H      -0.0275490000    -0.0787100000     2.1489330000
    5      C       0.3152510000     1.8646900000    -0.5996670000
    6      S       0.0502510000     0.3620900000    -1.4739670000
    7      C       0.4657510000     2.7185900000     1.8274330000
    8      H       0.3918510000     2.2993900000     2.8495330000
    9      H      -0.2994490000     3.5178900000     1.7390330000
   10      H       1.4582510000     3.2078900000     1.7390330000
   11      C      -0.1134490000    -2.0067100000     0.0128330000
   12      H      -1.1283490000    -2.0064100000     0.3821330000
   13      H      -0.3935490000    -2.7105100000    -0.7569670000
   14      H       0.2104510000    -2.5256100000     0.9028330000
   15      H       0.4800510000     2.7993900000    -1.1487670000
 ----------------------------------------------------------------

   10    -629.4211422008      6.60e-07  Convergence criterion met
 Total energy in the final basis set =     -629.4211422008
        RIMP2         total energy =      -630.5979032184 a.u.

                    Orbital Energies (a.u.)
 --------------------------------------------------------------

 Alpha MOs
 -- Occupied --
-91.9771 -11.2845 -11.2493 -11.2472 -11.2266 -11.2251 -11.2205  -8.9769
 -6.6579  -6.6573  -6.6568  -1.1600  -1.0556  -0.9980  -0.9409  -0.8833
 -0.7429  -0.7195  -0.6475  -0.5897  -0.5735  -0.5707  -0.5556  -0.5444
 -0.5089  -0.4929  -0.4632  -0.4531  -0.3376  -0.2892

          Ground-State Mulliken Net Atomic Charges

     Atom                 Charge (a.u.)
  ----------------------------------------
      1 C                     0.071842
      2 C                    -0.313628
      3 C                     0.051992
      4 H                     0.175123
      5 C                    -0.277025
      6 S                     0.000575
      7 C                    -0.274637
      8 H                     0.101160
      9 H                     0.107301
     10 H                     0.107395
     11 C                    -0.386637
     12 H                     0.140479
     13 H                     0.162776
     14 H                     0.141761
     15 H                     0.191522
  ----------------------------------------
  Sum of atomic charges =     0.000000

                    Cartesian Multipole Moments
 -----------------------------------------------------------------
    Charge (ESU x 10^10)
                -0.0000
    Dipole Moment (Debye)
         X      -0.5041      Y      -0.6913      Z       1.6746
       Tot       1.8805
    Quadrupole Moments (Debye-Ang)
        XX     -53.9071     XY       3.0530     YY     -42.1196
        XZ       0.2282     YZ      -0.0140     ZZ     -48.6066

 Total job time:  156.87s(wall), 155.63s(cpu)
        *  Thank you very much for using Q-Chem.  Have a nice day.  *
