 Q-Chem 5.4, Q-Chem, Inc., Pleasanton, CA (2021)
 Q-Chem 5.4.0 for Intel X86 EM64T Linux

User input:
--------------------------------------------------------------
$molecule
0 1
C	-0.283137	-0.512746	0.018379
C	0.081863	0.269954	1.117779
C	0.666763	1.524154	0.795079
H	-0.074037	-0.064346	2.154479
C	0.760063	1.724154	-0.594121
S	0.115163	0.341354	-1.468421
C	1.126463	2.509954	1.832979
H	0.946563	2.124254	2.855079
H	0.594163	3.480154	1.744579
H	2.211763	2.725854	1.744579
C	-0.283137	-1.953446	0.018379
H	-0.977237	-1.953146	-0.809021
H	0.344463	-2.657246	-0.508121
H	-1.008637	-2.472346	0.627179
H	1.161163	2.584454	-1.143221
$end

$rem
JOBTYPE		SP
EXCHANGE	HF
CORRELATION	pRIMP2
BASIS		cc-pvtz
METHOD		rimp2
AUX_BASIS	rimp2-cc-pvtz
SOLVENT_METHOD	PCM
PURECART	11111
SYMMETRY	false
MEM_TOTAL	110000
SCF_CONVERGENCE = 6
THRESH=10
$end

$solvent
dielectric 4.90
$end
--------------------------------------------------------------

             Standard Nuclear Orientation (Angstroms)
    I     Atom           X                Y                Z
 ----------------------------------------------------------------
    1      C      -0.2831370000    -0.5127460000     0.0183790000
    2      C       0.0818630000     0.2699540000     1.1177790000
    3      C       0.6667630000     1.5241540000     0.7950790000
    4      H      -0.0740370000    -0.0643460000     2.1544790000
    5      C       0.7600630000     1.7241540000    -0.5941210000
    6      S       0.1151630000     0.3413540000    -1.4684210000
    7      C       1.1264630000     2.5099540000     1.8329790000
    8      H       0.9465630000     2.1242540000     2.8550790000
    9      H       0.5941630000     3.4801540000     1.7445790000
   10      H       2.2117630000     2.7258540000     1.7445790000
   11      C      -0.2831370000    -1.9534460000     0.0183790000
   12      H      -0.9772370000    -1.9531460000    -0.8090210000
   13      H       0.3444630000    -2.6572460000    -0.5081210000
   14      H      -1.0086370000    -2.4723460000     0.6271790000
   15      H       1.1611630000     2.5844540000    -1.1432210000
 ----------------------------------------------------------------

   10    -629.4075306065      5.24e-07  Convergence criterion met
 Total energy in the final basis set =     -629.4075306065
        RIMP2         total energy =      -630.5878992919 a.u.

                    Orbital Energies (a.u.)
 --------------------------------------------------------------

 Alpha MOs
 -- Occupied --
-91.9789 -11.2716 -11.2601 -11.2474 -11.2313 -11.2270 -11.2147  -8.9789
 -6.6598  -6.6593  -6.6587  -1.1619  -1.0544  -0.9957  -0.9449  -0.8820
 -0.7474  -0.7200  -0.6459  -0.5893  -0.5754  -0.5705  -0.5508  -0.5465
 -0.5121  -0.4816  -0.4618  -0.4489  -0.3381  -0.2974

          Ground-State Mulliken Net Atomic Charges

     Atom                 Charge (a.u.)
  ----------------------------------------
      1 C                    -0.002540
      2 C                    -0.238747
      3 C                     0.031904
      4 H                     0.180607
      5 C                    -0.244939
      6 S                    -0.002641
      7 C                    -0.271868
      8 H                     0.101727
      9 H                     0.106834
     10 H                     0.106369
     11 C                    -0.363266
     12 H                     0.117216
     13 H                     0.151874
     14 H                     0.132969
     15 H                     0.194501
  ----------------------------------------
  Sum of atomic charges =     0.000000

                    Cartesian Multipole Moments
 -----------------------------------------------------------------
    Charge (ESU x 10^10)
                -0.0000
    Dipole Moment (Debye)
         X       0.2845      Y       0.0059      Z       1.0521
       Tot       1.0899
    Quadrupole Moments (Debye-Ang)
        XX     -52.3191     XY       4.2561     YY     -43.8759
        XZ      -0.1874     YZ       1.1353     ZZ     -48.5990

 Total job time:  157.39s(wall), 155.33s(cpu)
        *  Thank you very much for using Q-Chem.  Have a nice day.  *
