 Q-Chem 5.4, Q-Chem, Inc., Pleasanton, CA (2021)
 Q-Chem 5.4.0 for Intel X86 EM64T Linux

User input:
--------------------------------------------------------------
$molecule
0 1
C	-0.532583	-0.334682	0.014458
C	0.129017	0.220418	1.113858
C	1.189117	1.109918	0.791158
H	-0.153483	-0.016682	2.150558
C	1.358217	1.251718	-0.598042
S	0.189317	0.271018	-1.472342
C	2.022417	1.809118	1.829058
H	1.696317	1.535518	2.851158
H	1.950017	2.913318	1.740658
H	3.097217	1.546018	1.740658
C	-0.282383	-1.753482	0.014458
H	-1.346083	-1.940682	0.014358
H	-0.160183	-2.446582	-0.804742
H	-0.192283	-2.264582	0.961558
H	2.085317	1.861918	-1.147142
$end

$rem
JOBTYPE		SP
EXCHANGE	HF
CORRELATION	pRIMP2
BASIS		cc-pvtz
METHOD		rimp2
AUX_BASIS	rimp2-cc-pvtz
SOLVENT_METHOD	PCM
PURECART	11111
SYMMETRY	false
MEM_TOTAL	110000
SCF_CONVERGENCE = 6
THRESH=10
$end

$solvent
dielectric 4.90
$end
--------------------------------------------------------------

             Standard Nuclear Orientation (Angstroms)
    I     Atom           X                Y                Z
 ----------------------------------------------------------------
    1      C      -0.5325830000    -0.3346820000     0.0144580000
    2      C       0.1290170000     0.2204180000     1.1138580000
    3      C       1.1891170000     1.1099180000     0.7911580000
    4      H      -0.1534830000    -0.0166820000     2.1505580000
    5      C       1.3582170000     1.2517180000    -0.5980420000
    6      S       0.1893170000     0.2710180000    -1.4723420000
    7      C       2.0224170000     1.8091180000     1.8290580000
    8      H       1.6963170000     1.5355180000     2.8511580000
    9      H       1.9500170000     2.9133180000     1.7406580000
   10      H       3.0972170000     1.5460180000     1.7406580000
   11      C      -0.2823830000    -1.7534820000     0.0144580000
   12      H      -1.3460830000    -1.9406820000     0.0143580000
   13      H      -0.1601830000    -2.4465820000    -0.8047420000
   14      H      -0.1922830000    -2.2645820000     0.9615580000
   15      H       2.0853170000     1.8619180000    -1.1471420000
 ----------------------------------------------------------------

   11    -629.3342571861      6.86e-07  Convergence criterion met
 Total energy in the final basis set =     -629.3342571861
        RIMP2         total energy =      -630.5276187401 a.u.

                    Orbital Energies (a.u.)
 --------------------------------------------------------------

 Alpha MOs
 -- Occupied --
-91.9724 -11.2796 -11.2512 -11.2486 -11.2420 -11.2285 -11.2036  -8.9734
 -6.6542  -6.6533  -6.6531  -1.1713  -1.0545  -0.9976  -0.9385  -0.8817
 -0.7500  -0.7298  -0.6405  -0.5868  -0.5793  -0.5684  -0.5513  -0.5423
 -0.5178  -0.4926  -0.4582  -0.4190  -0.3347  -0.2825

          Ground-State Mulliken Net Atomic Charges

     Atom                 Charge (a.u.)
  ----------------------------------------
      1 C                    -0.100683
      2 C                    -0.133472
      3 C                    -0.012115
      4 H                     0.185340
      5 C                    -0.189850
      6 S                     0.011980
      7 C                    -0.268762
      8 H                     0.101695
      9 H                     0.106453
     10 H                     0.104295
     11 C                    -0.401180
     12 H                     0.125101
     13 H                     0.150262
     14 H                     0.124580
     15 H                     0.196357
  ----------------------------------------
  Sum of atomic charges =     0.000000

                    Cartesian Multipole Moments
 -----------------------------------------------------------------
    Charge (ESU x 10^10)
                -0.0000
    Dipole Moment (Debye)
         X       1.7506      Y       0.3274      Z       1.7351
       Tot       2.4864
    Quadrupole Moments (Debye-Ang)
        XX     -49.7463     XY       5.3177     YY     -48.2422
        XZ      -0.3073     YZ       0.2089     ZZ     -47.4873

 Total job time:  177.09s(wall), 174.74s(cpu)
        *  Thank you very much for using Q-Chem.  Have a nice day.  *
