 Q-Chem 5.4, Q-Chem, Inc., Pleasanton, CA (2021)
 Q-Chem 5.4.0 for Intel X86 EM64T Linux

User input:
--------------------------------------------------------------
$molecule
0 1
C	-0.582981	-0.237129	0.016960
C	0.164919	0.194671	1.116360
C	1.363419	0.886571	0.793660
H	-0.154481	0.010271	2.153060
C	1.554519	0.996871	-0.595540
S	0.233219	0.234071	-1.469840
C	2.305519	1.430471	1.831560
H	1.936819	1.217571	2.853660
H	2.425919	2.530371	1.743160
H	3.318319	0.984671	1.743160
C	-0.582981	-1.677829	0.016960
H	-1.518181	-1.677529	-0.523140
H	-0.173381	-2.381629	-0.692440
H	-1.056581	-2.196729	0.837160
H	2.376619	1.471471	-1.144640
$end

$rem
JOBTYPE		SP
EXCHANGE	HF
CORRELATION	pRIMP2
BASIS		cc-pvtz
METHOD		rimp2
AUX_BASIS	rimp2-cc-pvtz
SOLVENT_METHOD	PCM
PURECART	11111
SYMMETRY	false
MEM_TOTAL	110000
SCF_CONVERGENCE = 6
THRESH=10
$end

$solvent
dielectric 4.90
$end
--------------------------------------------------------------

             Standard Nuclear Orientation (Angstroms)
    I     Atom           X                Y                Z
 ----------------------------------------------------------------
    1      C      -0.5829810000    -0.2371290000     0.0169600000
    2      C       0.1649190000     0.1946710000     1.1163600000
    3      C       1.3634190000     0.8865710000     0.7936600000
    4      H      -0.1544810000     0.0102710000     2.1530600000
    5      C       1.5545190000     0.9968710000    -0.5955400000
    6      S       0.2332190000     0.2340710000    -1.4698400000
    7      C       2.3055190000     1.4304710000     1.8315600000
    8      H       1.9368190000     1.2175710000     2.8536600000
    9      H       2.4259190000     2.5303710000     1.7431600000
   10      H       3.3183190000     0.9846710000     1.7431600000
   11      C      -0.5829810000    -1.6778290000     0.0169600000
   12      H      -1.5181810000    -1.6775290000    -0.5231400000
   13      H      -0.1733810000    -2.3816290000    -0.6924400000
   14      H      -1.0565810000    -2.1967290000     0.8371600000
   15      H       2.3766190000     1.4714710000    -1.1446400000
 ----------------------------------------------------------------

   11    -629.3391669159      6.18e-07  Convergence criterion met
 Total energy in the final basis set =     -629.3391669159
        RIMP2         total energy =      -630.5305385484 a.u.

                    Orbital Energies (a.u.)
 --------------------------------------------------------------

 Alpha MOs
 -- Occupied --
-91.9755 -11.2831 -11.2518 -11.2488 -11.2389 -11.2286 -11.2046  -8.9762
 -6.6571  -6.6562  -6.6560  -1.1722  -1.0549  -0.9971  -0.9411  -0.8809
 -0.7525  -0.7294  -0.6408  -0.5891  -0.5764  -0.5736  -0.5507  -0.5433
 -0.5191  -0.4828  -0.4551  -0.4250  -0.3352  -0.2897

          Ground-State Mulliken Net Atomic Charges

     Atom                 Charge (a.u.)
  ----------------------------------------
      1 C                    -0.127414
      2 C                    -0.100309
      3 C                    -0.020463
      4 H                     0.187377
      5 C                    -0.177873
      6 S                     0.010048
      7 C                    -0.268723
      8 H                     0.101925
      9 H                     0.106363
     10 H                     0.103856
     11 C                    -0.395911
     12 H                     0.119135
     13 H                     0.145224
     14 H                     0.117992
     15 H                     0.198774
  ----------------------------------------
  Sum of atomic charges =     0.000000

                    Cartesian Multipole Moments
 -----------------------------------------------------------------
    Charge (ESU x 10^10)
                -0.0000
    Dipole Moment (Debye)
         X       2.0656      Y       0.2373      Z       1.4871
       Tot       2.5562
    Quadrupole Moments (Debye-Ang)
        XX     -47.7964     XY       5.0713     YY     -50.1271
        XZ      -0.5826     YZ       0.5122     ZZ     -47.5786

 Total job time:  176.69s(wall), 174.68s(cpu)
        *  Thank you very much for using Q-Chem.  Have a nice day.  *
