 Q-Chem 5.4, Q-Chem, Inc., Pleasanton, CA (2021)
 Q-Chem 5.4.0 for Intel X86 EM64T Linux

User input:
--------------------------------------------------------------
$molecule
0 1
C	-0.516295	-0.333974	0.011474
C	0.145305	0.221126	1.110874
C	1.205405	1.110626	0.788174
H	-0.137195	-0.015974	2.147574
C	1.374505	1.252426	-0.601026
S	0.205605	0.271726	-1.475326
C	2.038705	1.809826	1.826074
H	1.712605	1.536226	2.848174
H	1.966305	2.914026	1.737674
H	3.113505	1.546726	1.737674
C	-0.516295	-1.774674	0.011474
H	-1.343695	-1.774374	0.705574
H	-1.042795	-2.478474	-0.616126
H	0.092505	-2.293574	0.736974
H	2.101605	1.862626	-1.150126
$end

$rem
JOBTYPE		SP
EXCHANGE	HF
CORRELATION	pRIMP2
BASIS		cc-pvtz
METHOD		rimp2
AUX_BASIS	rimp2-cc-pvtz
SOLVENT_METHOD	PCM
PURECART	11111
SYMMETRY	false
MEM_TOTAL	110000
SCF_CONVERGENCE = 6
THRESH=10
$end

$solvent
dielectric 4.90
$end
--------------------------------------------------------------

             Standard Nuclear Orientation (Angstroms)
    I     Atom           X                Y                Z
 ----------------------------------------------------------------
    1      C      -0.5162950000    -0.3339740000     0.0114740000
    2      C       0.1453050000     0.2211260000     1.1108740000
    3      C       1.2054050000     1.1106260000     0.7881740000
    4      H      -0.1371950000    -0.0159740000     2.1475740000
    5      C       1.3745050000     1.2524260000    -0.6010260000
    6      S       0.2056050000     0.2717260000    -1.4753260000
    7      C       2.0387050000     1.8098260000     1.8260740000
    8      H       1.7126050000     1.5362260000     2.8481740000
    9      H       1.9663050000     2.9140260000     1.7376740000
   10      H       3.1135050000     1.5467260000     1.7376740000
   11      C      -0.5162950000    -1.7746740000     0.0114740000
   12      H      -1.3436950000    -1.7743740000     0.7055740000
   13      H      -1.0427950000    -2.4784740000    -0.6161260000
   14      H       0.0925050000    -2.2935740000     0.7369740000
   15      H       2.1016050000     1.8626260000    -1.1501260000
 ----------------------------------------------------------------

   10    -629.3696777829      9.96e-07  Convergence criterion met
 Total energy in the final basis set =     -629.3696777829
        RIMP2         total energy =      -630.5588574918 a.u.

                    Orbital Energies (a.u.)
 --------------------------------------------------------------

 Alpha MOs
 -- Occupied --
-91.9715 -11.2716 -11.2565 -11.2492 -11.2452 -11.2285 -11.2096  -8.9724
 -6.6533  -6.6524  -6.6521  -1.1679  -1.0545  -0.9988  -0.9372  -0.8835
 -0.7458  -0.7279  -0.6430  -0.5878  -0.5819  -0.5653  -0.5556  -0.5430
 -0.5164  -0.4885  -0.4603  -0.4247  -0.3365  -0.2931

          Ground-State Mulliken Net Atomic Charges

     Atom                 Charge (a.u.)
  ----------------------------------------
      1 C                    -0.042396
      2 C                    -0.195703
      3 C                     0.007561
      4 H                     0.181759
      5 C                    -0.210347
      6 S                     0.006697
      7 C                    -0.268759
      8 H                     0.101539
      9 H                     0.106969
     10 H                     0.105800
     11 C                    -0.389647
     12 H                     0.120772
     13 H                     0.146720
     14 H                     0.135182
     15 H                     0.193854
  ----------------------------------------
  Sum of atomic charges =     0.000000

                    Cartesian Multipole Moments
 -----------------------------------------------------------------
    Charge (ESU x 10^10)
                -0.0000
    Dipole Moment (Debye)
         X       1.2651      Y       0.0504      Z       2.0727
       Tot       2.4288
    Quadrupole Moments (Debye-Ang)
        XX     -48.8794     XY       5.6788     YY     -48.2069
        XZ       0.1398     YZ      -0.4739     ZZ     -48.1892

 Total job time:  158.83s(wall), 157.60s(cpu)
        *  Thank you very much for using Q-Chem.  Have a nice day.  *
