 Q-Chem 5.4, Q-Chem, Inc., Pleasanton, CA (2021)
 Q-Chem 5.4.0 for Intel X86 EM64T Linux

User input:
--------------------------------------------------------------
$molecule
0 1
C	-0.290609	-0.512746	0.017955
C	0.074391	0.269954	1.117355
C	0.659291	1.524154	0.794655
H	-0.081509	-0.064346	2.154055
C	0.752591	1.724154	-0.594545
S	0.107691	0.341354	-1.468845
C	1.118991	2.509954	1.832555
H	0.939091	2.124254	2.854655
H	0.586691	3.480154	1.744155
H	2.204291	2.725854	1.744155
C	-0.290609	-1.953446	0.017955
H	0.644791	-1.953146	-0.521945
H	0.118891	-2.657246	0.727455
H	-0.764209	-2.472346	-0.802245
H	1.153691	2.584454	-1.143645
$end

$rem
JOBTYPE		SP
EXCHANGE	HF
CORRELATION	pRIMP2
BASIS		cc-pvtz
METHOD		rimp2
AUX_BASIS	rimp2-cc-pvtz
SOLVENT_METHOD	PCM
PURECART	11111
SYMMETRY	false
MEM_TOTAL	110000
SCF_CONVERGENCE = 6
THRESH=10
$end

$solvent
dielectric 4.90
$end
--------------------------------------------------------------

             Standard Nuclear Orientation (Angstroms)
    I     Atom           X                Y                Z
 ----------------------------------------------------------------
    1      C      -0.2906090000    -0.5127460000     0.0179550000
    2      C       0.0743910000     0.2699540000     1.1173550000
    3      C       0.6592910000     1.5241540000     0.7946550000
    4      H      -0.0815090000    -0.0643460000     2.1540550000
    5      C       0.7525910000     1.7241540000    -0.5945450000
    6      S       0.1076910000     0.3413540000    -1.4688450000
    7      C       1.1189910000     2.5099540000     1.8325550000
    8      H       0.9390910000     2.1242540000     2.8546550000
    9      H       0.5866910000     3.4801540000     1.7441550000
   10      H       2.2042910000     2.7258540000     1.7441550000
   11      C      -0.2906090000    -1.9534460000     0.0179550000
   12      H       0.6447910000    -1.9531460000    -0.5219450000
   13      H       0.1188910000    -2.6572460000     0.7274550000
   14      H      -0.7642090000    -2.4723460000    -0.8022450000
   15      H       1.1536910000     2.5844540000    -1.1436450000
 ----------------------------------------------------------------

   10    -629.4122382144      7.01e-07  Convergence criterion met
 Total energy in the final basis set =     -629.4122382144
        RIMP2         total energy =      -630.5901584640 a.u.

                    Orbital Energies (a.u.)
 --------------------------------------------------------------

 Alpha MOs
 -- Occupied --
-91.9763 -11.2795 -11.2553 -11.2472 -11.2277 -11.2268 -11.2193  -8.9766
 -6.6576  -6.6570  -6.6564  -1.1632  -1.0566  -0.9953  -0.9436  -0.8811
 -0.7465  -0.7196  -0.6486  -0.5868  -0.5790  -0.5645  -0.5526  -0.5476
 -0.5090  -0.4915  -0.4634  -0.4527  -0.3400  -0.2910

          Ground-State Mulliken Net Atomic Charges

     Atom                 Charge (a.u.)
  ----------------------------------------
      1 C                     0.055056
      2 C                    -0.320793
      3 C                     0.061225
      4 H                     0.178190
      5 C                    -0.266829
      6 S                    -0.004487
      7 C                    -0.271043
      8 H                     0.101601
      9 H                     0.107624
     10 H                     0.106843
     11 C                    -0.371305
     12 H                     0.140194
     13 H                     0.160277
     14 H                     0.130242
     15 H                     0.193204
  ----------------------------------------
  Sum of atomic charges =     0.000000

                    Cartesian Multipole Moments
 -----------------------------------------------------------------
    Charge (ESU x 10^10)
                -0.0000
    Dipole Moment (Debye)
         X       1.1936      Y      -0.4395      Z       1.1566
       Tot       1.7192
    Quadrupole Moments (Debye-Ang)
        XX     -53.0988     XY       2.1468     YY     -43.6255
        XZ       0.4088     YZ       0.7965     ZZ     -48.6220

 Total job time:  157.64s(wall), 155.92s(cpu)
        *  Thank you very much for using Q-Chem.  Have a nice day.  *
