 Q-Chem 5.4, Q-Chem, Inc., Pleasanton, CA (2021)
 Q-Chem 5.4.0 for Intel X86 EM64T Linux

User input:
--------------------------------------------------------------
$molecule
0 1
C	0.001391	-0.576309	0.010353
C	0.001391	0.287291	1.109753
C	0.001491	1.671191	0.787053
H	0.001391	-0.081509	2.146453
C	0.001491	1.891891	-0.602147
S	0.001391	0.366091	-1.476447
C	0.001491	2.758991	1.824953
H	0.001491	2.333291	2.847053
H	-0.890909	3.413291	1.736553
H	0.893891	3.413191	1.736553
C	0.001391	-2.017009	0.010353
H	-0.186309	-2.017209	1.073953
H	0.808091	-2.720809	0.152653
H	-0.931309	-2.535909	-0.154147
H	0.001491	2.841091	-1.151247
$end

$rem
JOBTYPE		SP
EXCHANGE	HF
CORRELATION	pRIMP2
BASIS		cc-pvtz
METHOD		rimp2
AUX_BASIS	rimp2-cc-pvtz
SOLVENT_METHOD	PCM
PURECART	11111
SYMMETRY	false
MEM_TOTAL	110000
SCF_CONVERGENCE = 6
THRESH=10
$end

$solvent
dielectric 4.90
$end
--------------------------------------------------------------

   10    -629.4251043104      4.94e-07  Convergence criterion met
 Total energy in the final basis set =     -629.4251043104
        RIMP2         total energy =      -630.6028879755 a.u.
 Total job time:  158.21s(wall), 155.14s(cpu)
        *  Thank you very much for using Q-Chem.  Have a nice day.  *
 Q-Chem 5.4, Q-Chem, Inc., Pleasanton, CA (2021)
 Q-Chem 5.4.0 for Intel X86 EM64T Linux

User input:
--------------------------------------------------------------
$molecule
0 1
C	0.001391	-0.576309	0.010353
C	0.001391	0.287291	1.109753
C	0.001491	1.671191	0.787053
H	0.001391	-0.081509	2.146453
C	0.001491	1.891891	-0.602147
S	0.001391	0.366091	-1.476447
C	0.001491	2.758991	1.824953
H	0.001491	2.333291	2.847053
H	-0.890909	3.413291	1.736553
H	0.893891	3.413191	1.736553
C	0.001391	-2.017009	0.010353
H	-0.186309	-2.017209	1.073953
H	0.808091	-2.720809	0.152653
H	-0.931309	-2.535909	-0.154147
H	0.001491	2.841091	-1.151247
$end

$rem
JOBTYPE		SP
EXCHANGE	HF
CORRELATION	pRIMP2
BASIS		cc-pvtz
METHOD		rimp2
AUX_BASIS	rimp2-cc-pvtz
SOLVENT_METHOD	PCM
PURECART	11111
SYMMETRY	false
MEM_TOTAL	110000
SCF_CONVERGENCE = 6
THRESH=10
$end

$solvent
dielectric 4.90
$end
--------------------------------------------------------------

             Standard Nuclear Orientation (Angstroms)
    I     Atom           X                Y                Z
 ----------------------------------------------------------------
    1      C       0.0013910000    -0.5763090000     0.0103530000
    2      C       0.0013910000     0.2872910000     1.1097530000
    3      C       0.0014910000     1.6711910000     0.7870530000
    4      H       0.0013910000    -0.0815090000     2.1464530000
    5      C       0.0014910000     1.8918910000    -0.6021470000
    6      S       0.0013910000     0.3660910000    -1.4764470000
    7      C       0.0014910000     2.7589910000     1.8249530000
    8      H       0.0014910000     2.3332910000     2.8470530000
    9      H      -0.8909090000     3.4132910000     1.7365530000
   10      H       0.8938910000     3.4131910000     1.7365530000
   11      C       0.0013910000    -2.0170090000     0.0103530000
   12      H      -0.1863090000    -2.0172090000     1.0739530000
   13      H       0.8080910000    -2.7208090000     0.1526530000
   14      H      -0.9313090000    -2.5359090000    -0.1541470000
   15      H       0.0014910000     2.8410910000    -1.1512470000
 ----------------------------------------------------------------

   10    -629.4251043104      4.94e-07  Convergence criterion met
 Total energy in the final basis set =     -629.4251043104
        RIMP2         total energy =      -630.6028879755 a.u.

                    Orbital Energies (a.u.)
 --------------------------------------------------------------

 Alpha MOs
 -- Occupied --
-91.9751 -11.2778 -11.2572 -11.2470 -11.2341 -11.2274 -11.2165  -8.9752
 -6.6561  -6.6555  -6.6550  -1.1610  -1.0540  -0.9997  -0.9398  -0.8845
 -0.7423  -0.7241  -0.6491  -0.5913  -0.5776  -0.5660  -0.5599  -0.5420
 -0.5102  -0.4855  -0.4679  -0.4379  -0.3380  -0.3039

          Ground-State Mulliken Net Atomic Charges

     Atom                 Charge (a.u.)
  ----------------------------------------
      1 C                     0.067767
      2 C                    -0.269726
      3 C                     0.030039
      4 H                     0.177608
      5 C                    -0.250540
      6 S                    -0.008757
      7 C                    -0.273913
      8 H                     0.101132
      9 H                     0.107182
     10 H                     0.107279
     11 C                    -0.373601
     12 H                     0.120433
     13 H                     0.141778
     14 H                     0.129984
     15 H                     0.193336
  ----------------------------------------
  Sum of atomic charges =     0.000000

                    Cartesian Multipole Moments
 -----------------------------------------------------------------
    Charge (ESU x 10^10)
                -0.0000
    Dipole Moment (Debye)
         X      -0.1292      Y      -0.0762      Z       2.1369
       Tot       2.1422
    Quadrupole Moments (Debye-Ang)
        XX     -53.7114     XY       0.1739     YY     -42.1536
        XZ       0.1137     YZ      -1.0977     ZZ     -48.9524

 Total job time:  159.05s(wall), 156.09s(cpu)
        *  Thank you very much for using Q-Chem.  Have a nice day.  *
