 Q-Chem 5.4, Q-Chem, Inc., Pleasanton, CA (2021)
 Q-Chem 5.4.0 for Intel X86 EM64T Linux

User input:
--------------------------------------------------------------
$molecule
0 1
C	-0.436616	-0.417594	0.019884
C	0.118484	0.243906	1.119284
C	1.008084	1.304106	0.796584
H	-0.118516	-0.038594	2.155984
C	1.149984	1.473106	-0.592616
S	0.169184	0.304306	-1.466916
C	1.707284	2.137306	1.834484
H	1.433684	1.811306	2.856584
H	1.444284	3.212106	1.746084
H	2.811484	2.064906	1.746084
C	-0.436616	-1.858294	0.019884
H	-0.436516	-1.858494	-1.060116
H	-1.255816	-2.562094	0.019784
H	0.510484	-2.377194	0.019884
H	1.760084	2.200206	-1.141716
$end

$rem
JOBTYPE		SP
EXCHANGE	HF
CORRELATION	pRIMP2
BASIS		cc-pvtz
METHOD		rimp2
AUX_BASIS	rimp2-cc-pvtz
SOLVENT_METHOD	PCM
PURECART	11111
SYMMETRY	false
MEM_TOTAL	110000
SCF_CONVERGENCE = 6
THRESH=10
$end

$solvent
dielectric 4.90
$end
--------------------------------------------------------------

             Standard Nuclear Orientation (Angstroms)
    I     Atom           X                Y                Z
 ----------------------------------------------------------------
    1      C      -0.4366160000    -0.4175940000     0.0198840000
    2      C       0.1184840000     0.2439060000     1.1192840000
    3      C       1.0080840000     1.3041060000     0.7965840000
    4      H      -0.1185160000    -0.0385940000     2.1559840000
    5      C       1.1499840000     1.4731060000    -0.5926160000
    6      S       0.1691840000     0.3043060000    -1.4669160000
    7      C       1.7072840000     2.1373060000     1.8344840000
    8      H       1.4336840000     1.8113060000     2.8565840000
    9      H       1.4442840000     3.2121060000     1.7460840000
   10      H       2.8114840000     2.0649060000     1.7460840000
   11      C      -0.4366160000    -1.8582940000     0.0198840000
   12      H      -0.4365160000    -1.8584940000    -1.0601160000
   13      H      -1.2558160000    -2.5620940000     0.0197840000
   14      H       0.5104840000    -2.3771940000     0.0198840000
   15      H       1.7600840000     2.2002060000    -1.1417160000
 ----------------------------------------------------------------

   10    -629.3877000326      5.15e-07  Convergence criterion met
 Total energy in the final basis set =     -629.3877000326
        RIMP2         total energy =      -630.5724236799 a.u.

                    Orbital Energies (a.u.)
 --------------------------------------------------------------

 Alpha MOs
 -- Occupied --
-91.9776 -11.2684 -11.2611 -11.2474 -11.2383 -11.2276 -11.2111  -8.9781
 -6.6590  -6.6583  -6.6578  -1.1663  -1.0557  -0.9943  -0.9451  -0.8798
 -0.7510  -0.7222  -0.6450  -0.5914  -0.5773  -0.5663  -0.5519  -0.5476
 -0.5136  -0.4719  -0.4646  -0.4406  -0.3352  -0.3047

          Ground-State Mulliken Net Atomic Charges

     Atom                 Charge (a.u.)
  ----------------------------------------
      1 C                    -0.020572
      2 C                    -0.216099
      3 C                     0.031611
      4 H                     0.178293
      5 C                    -0.232607
      6 S                     0.001110
      7 C                    -0.270269
      8 H                     0.102000
      9 H                     0.106918
     10 H                     0.105269
     11 C                    -0.360422
     12 H                     0.114012
     13 H                     0.135648
     14 H                     0.128554
     15 H                     0.196555
  ----------------------------------------
  Sum of atomic charges =     0.000000

                    Cartesian Multipole Moments
 -----------------------------------------------------------------
    Charge (ESU x 10^10)
                -0.0000
    Dipole Moment (Debye)
         X       1.3701      Y       0.2379      Z       0.9912
       Tot       1.7078
    Quadrupole Moments (Debye-Ang)
        XX     -50.4439     XY       4.5850     YY     -46.5149
        XZ       0.1910     YZ       1.1960     ZZ     -48.4473

 Total job time:  159.13s(wall), 157.18s(cpu)
        *  Thank you very much for using Q-Chem.  Have a nice day.  *
