 Q-Chem 5.4, Q-Chem, Inc., Pleasanton, CA (2021)
 Q-Chem 5.4.0 for Intel X86 EM64T Linux

User input:
--------------------------------------------------------------
$molecule
0 1
C	-0.588879	-0.237127	0.019710
C	0.159021	0.194673	1.119110
C	1.357521	0.886573	0.796410
H	-0.160379	0.010273	2.155810
C	1.548621	0.996873	-0.592790
S	0.227321	0.234073	-1.467090
C	2.299621	1.430473	1.834310
H	1.930921	1.217573	2.856410
H	2.420021	2.530373	1.745910
H	3.312421	0.984673	1.745910
C	-0.588879	-1.677827	0.019710
H	-0.401179	-1.678027	-1.043890
H	-1.395579	-2.381627	-0.122590
H	0.343821	-2.196727	0.184210
H	2.370721	1.471473	-1.141890
$end

$rem
JOBTYPE		SP
EXCHANGE	HF
CORRELATION	pRIMP2
BASIS		cc-pvtz
METHOD		rimp2
AUX_BASIS	rimp2-cc-pvtz
SOLVENT_METHOD	PCM
PURECART	11111
SYMMETRY	false
MEM_TOTAL	110000
SCF_CONVERGENCE = 6
THRESH=10
$end

$solvent
dielectric 4.90
$end
--------------------------------------------------------------

             Standard Nuclear Orientation (Angstroms)
    I     Atom           X                Y                Z
 ----------------------------------------------------------------
    1      C      -0.5888790000    -0.2371270000     0.0197100000
    2      C       0.1590210000     0.1946730000     1.1191100000
    3      C       1.3575210000     0.8865730000     0.7964100000
    4      H      -0.1603790000     0.0102730000     2.1558100000
    5      C       1.5486210000     0.9968730000    -0.5927900000
    6      S       0.2273210000     0.2340730000    -1.4670900000
    7      C       2.2996210000     1.4304730000     1.8343100000
    8      H       1.9309210000     1.2175730000     2.8564100000
    9      H       2.4200210000     2.5303730000     1.7459100000
   10      H       3.3124210000     0.9846730000     1.7459100000
   11      C      -0.5888790000    -1.6778270000     0.0197100000
   12      H      -0.4011790000    -1.6780270000    -1.0438900000
   13      H      -1.3955790000    -2.3816270000    -0.1225900000
   14      H       0.3438210000    -2.1967270000     0.1842100000
   15      H       2.3707210000     1.4714730000    -1.1418900000
 ----------------------------------------------------------------

   11    -629.3392331545      3.75e-07  Convergence criterion met
 Total energy in the final basis set =     -629.3392331545
        RIMP2         total energy =      -630.5307325858 a.u.

                    Orbital Energies (a.u.)
 --------------------------------------------------------------

 Alpha MOs
 -- Occupied --
-91.9730 -11.2839 -11.2538 -11.2474 -11.2435 -11.2287 -11.2050  -8.9747
 -6.6554  -6.6544  -6.6542  -1.1764  -1.0589  -0.9956  -0.9439  -0.8769
 -0.7573  -0.7284  -0.6444  -0.5929  -0.5815  -0.5655  -0.5519  -0.5474
 -0.5172  -0.4656  -0.4629  -0.4336  -0.3273  -0.3046

          Ground-State Mulliken Net Atomic Charges

     Atom                 Charge (a.u.)
  ----------------------------------------
      1 C                    -0.104860
      2 C                    -0.112920
      3 C                    -0.018640
      4 H                     0.184128
      5 C                    -0.184103
      6 S                     0.006401
      7 C                    -0.268286
      8 H                     0.102187
      9 H                     0.106884
     10 H                     0.103621
     11 C                    -0.371733
     12 H                     0.125810
     13 H                     0.120677
     14 H                     0.111891
     15 H                     0.198941
  ----------------------------------------
  Sum of atomic charges =     0.000000

                    Cartesian Multipole Moments
 -----------------------------------------------------------------
    Charge (ESU x 10^10)
                -0.0000
    Dipole Moment (Debye)
         X       2.5942      Y       0.2098      Z       1.1215
       Tot       2.8341
    Quadrupole Moments (Debye-Ang)
        XX     -48.0754     XY       4.1307     YY     -50.3404
        XZ       0.0421     YZ       1.2558     ZZ     -47.7541

 Total job time:  179.44s(wall), 177.64s(cpu)
        *  Thank you very much for using Q-Chem.  Have a nice day.  *
