 Q-Chem 5.4, Q-Chem, Inc., Pleasanton, CA (2021)
 Q-Chem 5.4.0 for Intel X86 EM64T Linux

User input:
--------------------------------------------------------------
$molecule
0 1
C	-0.230602	-0.535395	0.010353
C	0.064798	0.276105	1.109753
C	0.538098	1.576505	0.787053
H	-0.061302	-0.070395	2.146453
C	0.613598	1.783905	-0.602147
S	0.091698	0.350205	-1.476447
C	0.910198	2.598705	1.824953
H	0.764598	2.198705	2.847053
H	0.295398	3.518705	1.736553
H	1.972598	2.908305	1.736553
C	-0.230602	-1.976095	0.010353
H	-0.418302	-1.976295	1.073953
H	0.576098	-2.679895	0.152653
H	-1.163302	-2.494995	-0.154147
H	0.938298	2.675905	-1.151247
$end

$rem
JOBTYPE		SP
EXCHANGE	HF
CORRELATION	pRIMP2
BASIS		cc-pvtz
METHOD		rimp2
AUX_BASIS	rimp2-cc-pvtz
SOLVENT_METHOD	PCM
PURECART	11111
SYMMETRY	false
MEM_TOTAL	110000
SCF_CONVERGENCE = 6
THRESH=10
$end

$solvent
dielectric 4.90
$end
--------------------------------------------------------------

             Standard Nuclear Orientation (Angstroms)
    I     Atom           X                Y                Z
 ----------------------------------------------------------------
    1      C      -0.2306020000    -0.5353950000     0.0103530000
    2      C       0.0647980000     0.2761050000     1.1097530000
    3      C       0.5380980000     1.5765050000     0.7870530000
    4      H      -0.0613020000    -0.0703950000     2.1464530000
    5      C       0.6135980000     1.7839050000    -0.6021470000
    6      S       0.0916980000     0.3502050000    -1.4764470000
    7      C       0.9101980000     2.5987050000     1.8249530000
    8      H       0.7645980000     2.1987050000     2.8470530000
    9      H       0.2953980000     3.5187050000     1.7365530000
   10      H       1.9725980000     2.9083050000     1.7365530000
   11      C      -0.2306020000    -1.9760950000     0.0103530000
   12      H      -0.4183020000    -1.9762950000     1.0739530000
   13      H       0.5760980000    -2.6798950000     0.1526530000
   14      H      -1.1633020000    -2.4949950000    -0.1541470000
   15      H       0.9382980000     2.6759050000    -1.1512470000
 ----------------------------------------------------------------

   10    -629.4165436046      4.95e-07  Convergence criterion met
 Total energy in the final basis set =     -629.4165436046
        RIMP2         total energy =      -630.5963818487 a.u.

                    Orbital Energies (a.u.)
 --------------------------------------------------------------

 Alpha MOs
 -- Occupied --
-91.9743 -11.2734 -11.2605 -11.2473 -11.2367 -11.2277 -11.2148  -8.9746
 -6.6555  -6.6549  -6.6544  -1.1621  -1.0536  -0.9996  -0.9393  -0.8845
 -0.7428  -0.7252  -0.6484  -0.5894  -0.5788  -0.5676  -0.5582  -0.5419
 -0.5124  -0.4821  -0.4670  -0.4354  -0.3379  -0.3044

          Ground-State Mulliken Net Atomic Charges

     Atom                 Charge (a.u.)
  ----------------------------------------
      1 C                     0.034272
      2 C                    -0.264931
      3 C                     0.036479
      4 H                     0.177811
      5 C                    -0.246606
      6 S                    -0.005786
      7 C                    -0.271688
      8 H                     0.101255
      9 H                     0.106949
     10 H                     0.107096
     11 C                    -0.357427
     12 H                     0.116194
     13 H                     0.145492
     14 H                     0.127355
     15 H                     0.193533
  ----------------------------------------
  Sum of atomic charges =     0.000000

                    Cartesian Multipole Moments
 -----------------------------------------------------------------
    Charge (ESU x 10^10)
                -0.0000
    Dipole Moment (Debye)
         X       0.4476      Y       0.0524      Z       2.1647
       Tot       2.2111
    Quadrupole Moments (Debye-Ang)
        XX     -52.7000     XY       2.9939     YY     -43.3739
        XZ       0.0275     YZ      -1.1149     ZZ     -48.8771

 Total job time:  159.08s(wall), 156.81s(cpu)
        *  Thank you very much for using Q-Chem.  Have a nice day.  *
