 Q-Chem 5.4, Q-Chem, Inc., Pleasanton, CA (2021)
 Q-Chem 5.4.0 for Intel X86 EM64T Linux

User input:
--------------------------------------------------------------
$molecule
0 1
C	-0.520763	-0.333974	0.019787
C	0.140837	0.221126	1.119187
C	1.200937	1.110626	0.796487
H	-0.141663	-0.015974	2.155887
C	1.370037	1.252426	-0.592713
S	0.201137	0.271726	-1.467013
C	2.034237	1.809826	1.834387
H	1.708137	1.536226	2.856487
H	1.961837	2.914026	1.745987
H	3.109037	1.546726	1.745987
C	-0.520763	-1.774674	0.019787
H	-0.151263	-1.774374	-0.995013
H	0.249037	-2.478474	0.299987
H	-1.410763	-2.293574	-0.304113
H	2.097137	1.862626	-1.141813
$end

$rem
JOBTYPE		SP
EXCHANGE	HF
CORRELATION	pRIMP2
BASIS		cc-pvtz
METHOD		rimp2
AUX_BASIS	rimp2-cc-pvtz
SOLVENT_METHOD	PCM
PURECART	11111
SYMMETRY	false
MEM_TOTAL	110000
SCF_CONVERGENCE = 6
THRESH=10
$end

$solvent
dielectric 4.90
$end
--------------------------------------------------------------

             Standard Nuclear Orientation (Angstroms)
    I     Atom           X                Y                Z
 ----------------------------------------------------------------
    1      C      -0.5207630000    -0.3339740000     0.0197870000
    2      C       0.1408370000     0.2211260000     1.1191870000
    3      C       1.2009370000     1.1106260000     0.7964870000
    4      H      -0.1416630000    -0.0159740000     2.1558870000
    5      C       1.3700370000     1.2524260000    -0.5927130000
    6      S       0.2011370000     0.2717260000    -1.4670130000
    7      C       2.0342370000     1.8098260000     1.8343870000
    8      H       1.7081370000     1.5362260000     2.8564870000
    9      H       1.9618370000     2.9140260000     1.7459870000
   10      H       3.1090370000     1.5467260000     1.7459870000
   11      C      -0.5207630000    -1.7746740000     0.0197870000
   12      H      -0.1512630000    -1.7743740000    -0.9950130000
   13      H       0.2490370000    -2.4784740000     0.2999870000
   14      H      -1.4107630000    -2.2935740000    -0.3041130000
   15      H       2.0971370000     1.8626260000    -1.1418130000
 ----------------------------------------------------------------

   10    -629.3615955971      7.44e-07  Convergence criterion met
 Total energy in the final basis set =     -629.3615955971
        RIMP2         total energy =      -630.5499021976 a.u.

                    Orbital Energies (a.u.)
 --------------------------------------------------------------

 Alpha MOs
 -- Occupied --
-91.9729 -11.2751 -11.2532 -11.2476 -11.2464 -11.2282 -11.2061  -8.9743
 -6.6551  -6.6543  -6.6539  -1.1707  -1.0569  -0.9942  -0.9446  -0.8783
 -0.7537  -0.7251  -0.6453  -0.5863  -0.5811  -0.5677  -0.5514  -0.5476
 -0.5174  -0.4688  -0.4634  -0.4356  -0.3335  -0.3007

          Ground-State Mulliken Net Atomic Charges

     Atom                 Charge (a.u.)
  ----------------------------------------
      1 C                    -0.059480
      2 C                    -0.173246
      3 C                     0.007786
      4 H                     0.181990
      5 C                    -0.208261
      6 S                    -0.001289
      7 C                    -0.269128
      8 H                     0.101849
      9 H                     0.107177
     10 H                     0.104721
     11 C                    -0.373480
     12 H                     0.129534
     13 H                     0.146056
     14 H                     0.108703
     15 H                     0.197068
  ----------------------------------------
  Sum of atomic charges =     0.000000

                    Cartesian Multipole Moments
 -----------------------------------------------------------------
    Charge (ESU x 10^10)
                -0.0000
    Dipole Moment (Debye)
         X       2.1156      Y       0.2659      Z       1.0995
       Tot       2.3990
    Quadrupole Moments (Debye-Ang)
        XX     -49.4207     XY       3.8696     YY     -48.5582
        XZ       0.2185     YZ       1.2140     ZZ     -48.1134

 Total job time:  161.14s(wall), 159.21s(cpu)
        *  Thank you very much for using Q-Chem.  Have a nice day.  *
