 Q-Chem 5.4, Q-Chem, Inc., Pleasanton, CA (2021)
 Q-Chem 5.4.0 for Intel X86 EM64T Linux

User input:
--------------------------------------------------------------
$molecule
0 1
C	-0.229813	-0.535397	0.019394
C	0.065587	0.276103	1.118794
C	0.538887	1.576503	0.796094
H	-0.060513	-0.070397	2.155494
C	0.614387	1.783903	-0.593106
S	0.092487	0.350203	-1.467406
C	0.910987	2.598703	1.833994
H	0.765387	2.198703	2.856094
H	0.296187	3.518703	1.745594
H	1.973387	2.908303	1.745594
C	-0.229813	-1.976097	0.019394
H	-0.599113	-1.975797	-0.995506
H	0.539987	-2.679897	-0.260706
H	-1.119813	-2.494997	0.343294
H	0.939087	2.675903	-1.142206
$end

$rem
JOBTYPE		SP
EXCHANGE	HF
CORRELATION	pRIMP2
BASIS		cc-pvtz
METHOD		rimp2
AUX_BASIS	rimp2-cc-pvtz
SOLVENT_METHOD	PCM
PURECART	11111
SYMMETRY	false
MEM_TOTAL	110000
SCF_CONVERGENCE = 6
THRESH=10
$end

$solvent
dielectric 4.90
$end
--------------------------------------------------------------

             Standard Nuclear Orientation (Angstroms)
    I     Atom           X                Y                Z
 ----------------------------------------------------------------
    1      C      -0.2298130000    -0.5353970000     0.0193940000
    2      C       0.0655870000     0.2761030000     1.1187940000
    3      C       0.5388870000     1.5765030000     0.7960940000
    4      H      -0.0605130000    -0.0703970000     2.1554940000
    5      C       0.6143870000     1.7839030000    -0.5931060000
    6      S       0.0924870000     0.3502030000    -1.4674060000
    7      C       0.9109870000     2.5987030000     1.8339940000
    8      H       0.7653870000     2.1987030000     2.8560940000
    9      H       0.2961870000     3.5187030000     1.7455940000
   10      H       1.9733870000     2.9083030000     1.7455940000
   11      C      -0.2298130000    -1.9760970000     0.0193940000
   12      H      -0.5991130000    -1.9757970000    -0.9955060000
   13      H       0.5399870000    -2.6798970000    -0.2607060000
   14      H      -1.1198130000    -2.4949970000     0.3432940000
   15      H       0.9390870000     2.6759030000    -1.1422060000
 ----------------------------------------------------------------

   10    -629.4121824563      5.24e-07  Convergence criterion met
 Total energy in the final basis set =     -629.4121824563
        RIMP2         total energy =      -630.5919428272 a.u.

                    Orbital Energies (a.u.)
 --------------------------------------------------------------

 Alpha MOs
 -- Occupied --
-91.9800 -11.2712 -11.2604 -11.2473 -11.2314 -11.2270 -11.2147  -8.9799
 -6.6608  -6.6602  -6.6597  -1.1618  -1.0546  -0.9953  -0.9459  -0.8817
 -0.7482  -0.7196  -0.6470  -0.5900  -0.5759  -0.5686  -0.5519  -0.5471
 -0.5114  -0.4802  -0.4645  -0.4449  -0.3380  -0.3026

          Ground-State Mulliken Net Atomic Charges

     Atom                 Charge (a.u.)
  ----------------------------------------
      1 C                     0.019164
      2 C                    -0.251349
      3 C                     0.036303
      4 H                     0.179898
      5 C                    -0.250235
      6 S                    -0.000386
      7 C                    -0.272239
      8 H                     0.101914
      9 H                     0.106766
     10 H                     0.106503
     11 C                    -0.357388
     12 H                     0.111243
     13 H                     0.143316
     14 H                     0.131568
     15 H                     0.194922
  ----------------------------------------
  Sum of atomic charges =     0.000000

                    Cartesian Multipole Moments
 -----------------------------------------------------------------
    Charge (ESU x 10^10)
                -0.0000
    Dipole Moment (Debye)
         X       0.3480      Y       0.1156      Z       0.9400
       Tot       1.0090
    Quadrupole Moments (Debye-Ang)
        XX     -52.7238     XY       3.2663     YY     -43.3597
        XZ      -0.0706     YZ       1.3309     ZZ     -48.7245

 Total job time:  157.79s(wall), 155.86s(cpu)
        *  Thank you very much for using Q-Chem.  Have a nice day.  *
