 Q-Chem 5.4, Q-Chem, Inc., Pleasanton, CA (2021)
 Q-Chem 5.4.0 for Intel X86 EM64T Linux

User input:
--------------------------------------------------------------
$molecule
0 1
C	-0.002696	-0.576312	0.019118
C	-0.002696	0.287288	1.118518
C	-0.002596	1.671188	0.795818
H	-0.002696	-0.081512	2.155218
C	-0.002596	1.891888	-0.593382
S	-0.002696	0.366088	-1.467682
C	-0.002596	2.758988	1.833718
H	-0.002596	2.333288	2.855818
H	-0.894996	3.413288	1.745318
H	0.889804	3.413188	1.745318
C	-0.002696	-2.017012	0.019118
H	0.691604	-2.016712	-0.808182
H	0.624804	-2.720812	0.545718
H	-0.728296	-2.535912	-0.589682
H	-0.002596	2.841088	-1.142482
$end

$rem
JOBTYPE		SP
EXCHANGE	HF
CORRELATION	pRIMP2
BASIS		cc-pvtz
METHOD		rimp2
AUX_BASIS	rimp2-cc-pvtz
SOLVENT_METHOD	PCM
PURECART	11111
SYMMETRY	false
MEM_TOTAL	110000
SCF_CONVERGENCE = 6
THRESH=10
$end

$solvent
dielectric 4.90
$end
--------------------------------------------------------------

   10    -629.4222447391      6.18e-07  Convergence criterion met
 Total energy in the final basis set =     -629.4222447391
        RIMP2         total energy =      -630.5985945921 a.u.
 Total job time:  159.94s(wall), 157.42s(cpu)
        *  Thank you very much for using Q-Chem.  Have a nice day.  *
 Q-Chem 5.4, Q-Chem, Inc., Pleasanton, CA (2021)
 Q-Chem 5.4.0 for Intel X86 EM64T Linux

User input:
--------------------------------------------------------------
$molecule
0 1
C	-0.002696	-0.576312	0.019118
C	-0.002696	0.287288	1.118518
C	-0.002596	1.671188	0.795818
H	-0.002696	-0.081512	2.155218
C	-0.002596	1.891888	-0.593382
S	-0.002696	0.366088	-1.467682
C	-0.002596	2.758988	1.833718
H	-0.002596	2.333288	2.855818
H	-0.894996	3.413288	1.745318
H	0.889804	3.413188	1.745318
C	-0.002696	-2.017012	0.019118
H	0.691604	-2.016712	-0.808182
H	0.624804	-2.720812	0.545718
H	-0.728296	-2.535912	-0.589682
H	-0.002596	2.841088	-1.142482
$end

$rem
JOBTYPE		SP
EXCHANGE	HF
CORRELATION	pRIMP2
BASIS		cc-pvtz
METHOD		rimp2
AUX_BASIS	rimp2-cc-pvtz
SOLVENT_METHOD	PCM
PURECART	11111
SYMMETRY	false
MEM_TOTAL	110000
SCF_CONVERGENCE = 6
THRESH=10
$end

$solvent
dielectric 4.90
$end
--------------------------------------------------------------

             Standard Nuclear Orientation (Angstroms)
    I     Atom           X                Y                Z
 ----------------------------------------------------------------
    1      C      -0.0026960000    -0.5763120000     0.0191180000
    2      C      -0.0026960000     0.2872880000     1.1185180000
    3      C      -0.0025960000     1.6711880000     0.7958180000
    4      H      -0.0026960000    -0.0815120000     2.1552180000
    5      C      -0.0025960000     1.8918880000    -0.5933820000
    6      S      -0.0026960000     0.3660880000    -1.4676820000
    7      C      -0.0025960000     2.7589880000     1.8337180000
    8      H      -0.0025960000     2.3332880000     2.8558180000
    9      H      -0.8949960000     3.4132880000     1.7453180000
   10      H       0.8898040000     3.4131880000     1.7453180000
   11      C      -0.0026960000    -2.0170120000     0.0191180000
   12      H       0.6916040000    -2.0167120000    -0.8081820000
   13      H       0.6248040000    -2.7208120000     0.5457180000
   14      H      -0.7282960000    -2.5359120000    -0.5896820000
   15      H      -0.0025960000     2.8410880000    -1.1424820000
 ----------------------------------------------------------------

   10    -629.4222447391      6.18e-07  Convergence criterion met
 Total energy in the final basis set =     -629.4222447391
        RIMP2         total energy =      -630.5985945921 a.u.

                    Orbital Energies (a.u.)
 --------------------------------------------------------------

 Alpha MOs
 -- Occupied --
-91.9794 -11.2794 -11.2545 -11.2468 -11.2266 -11.2266 -11.2182  -8.9793
 -6.6602  -6.6597  -6.6591  -1.1606  -1.0556  -0.9956  -0.9455  -0.8817
 -0.7465  -0.7182  -0.6488  -0.5902  -0.5754  -0.5654  -0.5534  -0.5473
 -0.5083  -0.4890  -0.4651  -0.4506  -0.3392  -0.2967

          Ground-State Mulliken Net Atomic Charges

     Atom                 Charge (a.u.)
  ----------------------------------------
      1 C                     0.055441
      2 C                    -0.279618
      3 C                     0.041250
      4 H                     0.180720
      5 C                    -0.262051
      6 S                    -0.003962
      7 C                    -0.273557
      8 H                     0.101597
      9 H                     0.107200
     10 H                     0.107035
     11 C                    -0.375391
     12 H                     0.121198
     13 H                     0.156562
     14 H                     0.129046
     15 H                     0.194531
  ----------------------------------------
  Sum of atomic charges =     0.000000

                    Cartesian Multipole Moments
 -----------------------------------------------------------------
    Charge (ESU x 10^10)
                -0.0000
    Dipole Moment (Debye)
         X       0.4273      Y      -0.2660      Z       0.9356
       Tot       1.0624
    Quadrupole Moments (Debye-Ang)
        XX     -53.9911     XY      -1.0559     YY     -41.9379
        XZ       0.3148     YZ       1.2177     ZZ     -48.7585

 Total job time:  157.49s(wall), 155.19s(cpu)
        *  Thank you very much for using Q-Chem.  Have a nice day.  *
