 Q-Chem 5.4, Q-Chem, Inc., Pleasanton, CA (2021)
 Q-Chem 5.4.0 for Intel X86 EM64T Linux

User input:
--------------------------------------------------------------
$molecule
0 1
C	-0.177774	-0.553189	0.019394
C	0.045726	0.281011	1.118794
C	0.403926	1.617711	0.796094
H	-0.049674	-0.075289	2.155494
C	0.461126	1.830811	-0.593106
S	0.066126	0.357111	-1.467406
C	0.685526	2.668411	1.833994
H	0.575326	2.257311	2.856094
H	-0.007074	3.531411	1.745594
H	1.716826	3.069411	1.745594
C	-0.177774	-1.993889	0.019394
H	0.191726	-1.994089	-0.995406
H	-0.947574	-2.697689	-0.260806
H	0.712226	-2.512789	0.343294
H	0.706826	2.747711	-1.142206
$end

$rem
JOBTYPE		SP
EXCHANGE	HF
CORRELATION	pRIMP2
BASIS		cc-pvtz
METHOD		rimp2
AUX_BASIS	rimp2-cc-pvtz
SOLVENT_METHOD	PCM
PURECART	11111
SYMMETRY	false
MEM_TOTAL	110000
SCF_CONVERGENCE = 6
THRESH=10
$end

$solvent
dielectric 4.90
$end
--------------------------------------------------------------

             Standard Nuclear Orientation (Angstroms)
    I     Atom           X                Y                Z
 ----------------------------------------------------------------
    1      C      -0.1777740000    -0.5531890000     0.0193940000
    2      C       0.0457260000     0.2810110000     1.1187940000
    3      C       0.4039260000     1.6177110000     0.7960940000
    4      H      -0.0496740000    -0.0752890000     2.1554940000
    5      C       0.4611260000     1.8308110000    -0.5931060000
    6      S       0.0661260000     0.3571110000    -1.4674060000
    7      C       0.6855260000     2.6684110000     1.8339940000
    8      H       0.5753260000     2.2573110000     2.8560940000
    9      H      -0.0070740000     3.5314110000     1.7455940000
   10      H       1.7168260000     3.0694110000     1.7455940000
   11      C      -0.1777740000    -1.9938890000     0.0193940000
   12      H       0.1917260000    -1.9940890000    -0.9954060000
   13      H      -0.9475740000    -2.6976890000    -0.2608060000
   14      H       0.7122260000    -2.5127890000     0.3432940000
   15      H       0.7068260000     2.7477110000    -1.1422060000
 ----------------------------------------------------------------

   10    -629.4168793956      5.62e-07  Convergence criterion met
 Total energy in the final basis set =     -629.4168793956
        RIMP2         total energy =      -630.5952688097 a.u.

                    Orbital Energies (a.u.)
 --------------------------------------------------------------

 Alpha MOs
 -- Occupied --
-91.9790 -11.2749 -11.2579 -11.2470 -11.2301 -11.2269 -11.2158  -8.9791
 -6.6600  -6.6594  -6.6588  -1.1617  -1.0554  -0.9952  -0.9458  -0.8813
 -0.7480  -0.7190  -0.6474  -0.5915  -0.5760  -0.5657  -0.5527  -0.5476
 -0.5090  -0.4864  -0.4645  -0.4450  -0.3383  -0.3017

          Ground-State Mulliken Net Atomic Charges

     Atom                 Charge (a.u.)
  ----------------------------------------
      1 C                     0.051507
      2 C                    -0.275364
      3 C                     0.047392
      4 H                     0.179552
      5 C                    -0.259160
      6 S                    -0.003245
      7 C                    -0.272431
      8 H                     0.101792
      9 H                     0.107138
     10 H                     0.106749
     11 C                    -0.371911
     12 H                     0.117719
     13 H                     0.143907
     14 H                     0.131467
     15 H                     0.194888
  ----------------------------------------
  Sum of atomic charges =     0.000000

                    Cartesian Multipole Moments
 -----------------------------------------------------------------
    Charge (ESU x 10^10)
                -0.0000
    Dipole Moment (Debye)
         X       0.6432      Y      -0.0290      Z       0.8935
       Tot       1.1013
    Quadrupole Moments (Debye-Ang)
        XX     -53.3139     XY       1.8032     YY     -42.8683
        XZ       0.3459     YZ       1.4945     ZZ     -48.7515

 Total job time:  155.98s(wall), 155.10s(cpu)
        *  Thank you very much for using Q-Chem.  Have a nice day.  *
