 Q-Chem 5.4, Q-Chem, Inc., Pleasanton, CA (2021)
 Q-Chem 5.4.0 for Intel X86 EM64T Linux

User input:
--------------------------------------------------------------
$molecule
0 1
C	-0.172015	-0.553189	0.011685
C	0.051485	0.281011	1.111085
C	0.409685	1.617711	0.788385
H	-0.043915	-0.075289	2.147785
C	0.466885	1.830811	-0.600815
S	0.071885	0.357111	-1.475115
C	0.691285	2.668411	1.826285
H	0.581085	2.257311	2.848385
H	-0.001315	3.531411	1.737885
H	1.722585	3.069411	1.737885
C	-0.172015	-1.993889	0.011685
H	-0.866315	-1.994089	0.838985
H	0.455485	-2.697689	0.538285
H	-0.897615	-2.512789	-0.597115
H	0.712585	2.747711	-1.149915
$end

$rem
JOBTYPE		SP
EXCHANGE	HF
CORRELATION	pRIMP2
BASIS		cc-pvtz
METHOD		rimp2
AUX_BASIS	rimp2-cc-pvtz
SOLVENT_METHOD	PCM
PURECART	11111
SYMMETRY	false
MEM_TOTAL	110000
SCF_CONVERGENCE = 6
THRESH=10
$end

$solvent
dielectric 4.90
$end
--------------------------------------------------------------

             Standard Nuclear Orientation (Angstroms)
    I     Atom           X                Y                Z
 ----------------------------------------------------------------
    1      C      -0.1720150000    -0.5531890000     0.0116850000
    2      C       0.0514850000     0.2810110000     1.1110850000
    3      C       0.4096850000     1.6177110000     0.7883850000
    4      H      -0.0439150000    -0.0752890000     2.1477850000
    5      C       0.4668850000     1.8308110000    -0.6008150000
    6      S       0.0718850000     0.3571110000    -1.4751150000
    7      C       0.6912850000     2.6684110000     1.8262850000
    8      H       0.5810850000     2.2573110000     2.8483850000
    9      H      -0.0013150000     3.5314110000     1.7378850000
   10      H       1.7225850000     3.0694110000     1.7378850000
   11      C      -0.1720150000    -1.9938890000     0.0116850000
   12      H      -0.8663150000    -1.9940890000     0.8389850000
   13      H       0.4554850000    -2.6976890000     0.5382850000
   14      H      -0.8976150000    -2.5127890000    -0.5971150000
   15      H       0.7125850000     2.7477110000    -1.1499150000
 ----------------------------------------------------------------

   10    -629.4193147666      5.41e-07  Convergence criterion met
 Total energy in the final basis set =     -629.4193147666
        RIMP2         total energy =      -630.5979810921 a.u.

                    Orbital Energies (a.u.)
 --------------------------------------------------------------

 Alpha MOs
 -- Occupied --
-91.9758 -11.2776 -11.2557 -11.2473 -11.2315 -11.2272 -11.2170  -8.9759
 -6.6568  -6.6562  -6.6557  -1.1608  -1.0542  -0.9987  -0.9404  -0.8840
 -0.7427  -0.7224  -0.6491  -0.5881  -0.5760  -0.5651  -0.5602  -0.5430
 -0.5107  -0.4887  -0.4649  -0.4435  -0.3376  -0.2972

          Ground-State Mulliken Net Atomic Charges

     Atom                 Charge (a.u.)
  ----------------------------------------
      1 C                     0.050368
      2 C                    -0.283957
      3 C                     0.040938
      4 H                     0.177829
      5 C                    -0.258029
      6 S                    -0.003438
      7 C                    -0.273823
      8 H                     0.101217
      9 H                     0.106985
     10 H                     0.107262
     11 C                    -0.371393
     12 H                     0.127372
     13 H                     0.149790
     14 H                     0.136228
     15 H                     0.192650
  ----------------------------------------
  Sum of atomic charges =     0.000000

                    Cartesian Multipole Moments
 -----------------------------------------------------------------
    Charge (ESU x 10^10)
                -0.0000
    Dipole Moment (Debye)
         X      -0.0799      Y      -0.2268      Z       1.9990
       Tot       2.0134
    Quadrupole Moments (Debye-Ang)
        XX     -53.2666     XY       3.1446     YY     -42.7580
        XZ       0.2928     YZ      -0.8829     ZZ     -48.7284

 Total job time:  156.32s(wall), 154.54s(cpu)
        *  Thank you very much for using Q-Chem.  Have a nice day.  *
