 Q-Chem 5.4, Q-Chem, Inc., Pleasanton, CA (2021)
 Q-Chem 5.4.0 for Intel X86 EM64T Linux

User input:
--------------------------------------------------------------
$molecule
0 1
C	-0.521842	-0.333974	0.010669
C	0.139758	0.221126	1.110069
C	1.199858	1.110626	0.787369
H	-0.142742	-0.015974	2.146769
C	1.368958	1.252426	-0.601831
S	0.200058	0.271726	-1.476131
C	2.033158	1.809826	1.825269
H	1.707058	1.536226	2.847369
H	1.960758	2.914026	1.736869
H	3.107958	1.546726	1.736869
C	-0.521842	-1.774674	0.010669
H	-0.152542	-1.774374	1.025569
H	-1.291642	-2.478474	0.290769
H	0.368158	-2.293574	-0.313231
H	2.096058	1.862626	-1.150931
$end

$rem
JOBTYPE		SP
EXCHANGE	HF
CORRELATION	pRIMP2
BASIS		cc-pvtz
METHOD		rimp2
AUX_BASIS	rimp2-cc-pvtz
SOLVENT_METHOD	PCM
PURECART	11111
SYMMETRY	false
MEM_TOTAL	110000
SCF_CONVERGENCE = 6
THRESH=10
$end

$solvent
dielectric 4.90
$end
--------------------------------------------------------------

             Standard Nuclear Orientation (Angstroms)
    I     Atom           X                Y                Z
 ----------------------------------------------------------------
    1      C      -0.5218420000    -0.3339740000     0.0106690000
    2      C       0.1397580000     0.2211260000     1.1100690000
    3      C       1.1998580000     1.1106260000     0.7873690000
    4      H      -0.1427420000    -0.0159740000     2.1467690000
    5      C       1.3689580000     1.2524260000    -0.6018310000
    6      S       0.2000580000     0.2717260000    -1.4761310000
    7      C       2.0331580000     1.8098260000     1.8252690000
    8      H       1.7070580000     1.5362260000     2.8473690000
    9      H       1.9607580000     2.9140260000     1.7368690000
   10      H       3.1079580000     1.5467260000     1.7368690000
   11      C      -0.5218420000    -1.7746740000     0.0106690000
   12      H      -0.1525420000    -1.7743740000     1.0255690000
   13      H      -1.2916420000    -2.4784740000     0.2907690000
   14      H       0.3681580000    -2.2935740000    -0.3132310000
   15      H       2.0960580000     1.8626260000    -1.1509310000
 ----------------------------------------------------------------

   10    -629.3666804572      9.74e-07  Convergence criterion met
 Total energy in the final basis set =     -629.3666804572
        RIMP2         total energy =      -630.5559229333 a.u.

                    Orbital Energies (a.u.)
 --------------------------------------------------------------

 Alpha MOs
 -- Occupied --
-91.9751 -11.2728 -11.2572 -11.2482 -11.2449 -11.2287 -11.2078  -8.9755
 -6.6564  -6.6556  -6.6553  -1.1709  -1.0557  -1.0007  -0.9345  -0.8825
 -0.7460  -0.7315  -0.6437  -0.5927  -0.5811  -0.5677  -0.5547  -0.5431
 -0.5159  -0.4705  -0.4621  -0.4388  -0.3309  -0.3010

          Ground-State Mulliken Net Atomic Charges

     Atom                 Charge (a.u.)
  ----------------------------------------
      1 C                    -0.050811
      2 C                    -0.172562
      3 C                    -0.001506
      4 H                     0.178760
      5 C                    -0.212273
      6 S                     0.009338
      7 C                    -0.268651
      8 H                     0.101429
      9 H                     0.106987
     10 H                     0.104998
     11 C                    -0.366854
     12 H                     0.123381
     13 H                     0.122962
     14 H                     0.129355
     15 H                     0.195447
  ----------------------------------------
  Sum of atomic charges =     0.000000

                    Cartesian Multipole Moments
 -----------------------------------------------------------------
    Charge (ESU x 10^10)
                -0.0000
    Dipole Moment (Debye)
         X       2.0288      Y       0.1600      Z       2.2021
       Tot       2.9985
    Quadrupole Moments (Debye-Ang)
        XX     -49.4199     XY       4.1268     YY     -48.5453
        XZ      -0.6056     YZ      -1.0128     ZZ     -48.1840

 Total job time:  161.00s(wall), 160.00s(cpu)
        *  Thank you very much for using Q-Chem.  Have a nice day.  *
