 Q-Chem 5.4, Q-Chem, Inc., Pleasanton, CA (2021)
 Q-Chem 5.4.0 for Intel X86 EM64T Linux

User input:
--------------------------------------------------------------
$molecule
0 1
C	-0.001138	-0.576312	0.019787
C	-0.001138	0.287288	1.119187
C	-0.001038	1.671188	0.796487
H	-0.001138	-0.081512	2.155887
C	-0.001038	1.891888	-0.592713
S	-0.001138	0.366088	-1.467013
C	-0.001038	2.758988	1.834387
H	-0.001038	2.333288	2.856487
H	-0.893438	3.413288	1.745987
H	0.891362	3.413188	1.745987
C	-0.001138	-2.017012	0.019787
H	0.368362	-2.016712	-0.995013
H	0.768662	-2.720812	0.299987
H	-0.891138	-2.535912	-0.304113
H	-0.001038	2.841088	-1.141813
$end

$rem
JOBTYPE		SP
EXCHANGE	HF
CORRELATION	pRIMP2
BASIS		cc-pvtz
METHOD		rimp2
AUX_BASIS	rimp2-cc-pvtz
SOLVENT_METHOD	PCM
PURECART	11111
SYMMETRY	false
MEM_TOTAL	110000
SCF_CONVERGENCE = 6
THRESH=10
$end

$solvent
dielectric 4.90
$end
--------------------------------------------------------------

   10    -629.4210023238      5.65e-07  Convergence criterion met
 Total energy in the final basis set =     -629.4210023238
        RIMP2         total energy =      -630.5983879811 a.u.
 Total job time:  158.48s(wall), 155.71s(cpu)
        *  Thank you very much for using Q-Chem.  Have a nice day.  *
 Q-Chem 5.4, Q-Chem, Inc., Pleasanton, CA (2021)
 Q-Chem 5.4.0 for Intel X86 EM64T Linux

User input:
--------------------------------------------------------------
$molecule
0 1
C	-0.001138	-0.576312	0.019787
C	-0.001138	0.287288	1.119187
C	-0.001038	1.671188	0.796487
H	-0.001138	-0.081512	2.155887
C	-0.001038	1.891888	-0.592713
S	-0.001138	0.366088	-1.467013
C	-0.001038	2.758988	1.834387
H	-0.001038	2.333288	2.856487
H	-0.893438	3.413288	1.745987
H	0.891362	3.413188	1.745987
C	-0.001138	-2.017012	0.019787
H	0.368362	-2.016712	-0.995013
H	0.768662	-2.720812	0.299987
H	-0.891138	-2.535912	-0.304113
H	-0.001038	2.841088	-1.141813
$end

$rem
JOBTYPE		SP
EXCHANGE	HF
CORRELATION	pRIMP2
BASIS		cc-pvtz
METHOD		rimp2
AUX_BASIS	rimp2-cc-pvtz
SOLVENT_METHOD	PCM
PURECART	11111
SYMMETRY	false
MEM_TOTAL	110000
SCF_CONVERGENCE = 6
THRESH=10
$end

$solvent
dielectric 4.90
$end
--------------------------------------------------------------

             Standard Nuclear Orientation (Angstroms)
    I     Atom           X                Y                Z
 ----------------------------------------------------------------
    1      C      -0.0011380000    -0.5763120000     0.0197870000
    2      C      -0.0011380000     0.2872880000     1.1191870000
    3      C      -0.0010380000     1.6711880000     0.7964870000
    4      H      -0.0011380000    -0.0815120000     2.1558870000
    5      C      -0.0010380000     1.8918880000    -0.5927130000
    6      S      -0.0011380000     0.3660880000    -1.4670130000
    7      C      -0.0010380000     2.7589880000     1.8343870000
    8      H      -0.0010380000     2.3332880000     2.8564870000
    9      H      -0.8934380000     3.4132880000     1.7459870000
   10      H       0.8913620000     3.4131880000     1.7459870000
   11      C      -0.0011380000    -2.0170120000     0.0197870000
   12      H       0.3683620000    -2.0167120000    -0.9950130000
   13      H       0.7686620000    -2.7208120000     0.2999870000
   14      H      -0.8911380000    -2.5359120000    -0.3041130000
   15      H      -0.0010380000     2.8410880000    -1.1418130000
 ----------------------------------------------------------------

   10    -629.4210023238      5.65e-07  Convergence criterion met
 Total energy in the final basis set =     -629.4210023238
        RIMP2         total energy =      -630.5983879811 a.u.

                    Orbital Energies (a.u.)
 --------------------------------------------------------------

 Alpha MOs
 -- Occupied --
-91.9804 -11.2762 -11.2569 -11.2470 -11.2284 -11.2267 -11.2165  -8.9802
 -6.6611  -6.6606  -6.6600  -1.1608  -1.0553  -0.9954  -0.9462  -0.8817
 -0.7475  -0.7184  -0.6485  -0.5912  -0.5753  -0.5654  -0.5539  -0.5474
 -0.5087  -0.4868  -0.4650  -0.4460  -0.3387  -0.3018

          Ground-State Mulliken Net Atomic Charges

     Atom                 Charge (a.u.)
  ----------------------------------------
      1 C                     0.056860
      2 C                    -0.267927
      3 C                     0.040295
      4 H                     0.180448
      5 C                    -0.259956
      6 S                    -0.002921
      7 C                    -0.273472
      8 H                     0.101831
      9 H                     0.106982
     10 H                     0.106898
     11 C                    -0.372518
     12 H                     0.114687
     13 H                     0.149946
     14 H                     0.123702
     15 H                     0.195144
  ----------------------------------------
  Sum of atomic charges =     0.000000

                    Cartesian Multipole Moments
 -----------------------------------------------------------------
    Charge (ESU x 10^10)
                -0.0000
    Dipole Moment (Debye)
         X       0.2087      Y      -0.0440      Z       0.8643
       Tot       0.8902
    Quadrupole Moments (Debye-Ang)
        XX     -53.7715     XY      -0.6158     YY     -42.1098
        XZ       0.1949     YZ       1.4058     ZZ     -48.8219

 Total job time:  159.08s(wall), 155.12s(cpu)
        *  Thank you very much for using Q-Chem.  Have a nice day.  *
