 Q-Chem 5.4, Q-Chem, Inc., Pleasanton, CA (2021)
 Q-Chem 5.4.0 for Intel X86 EM64T Linux

User input:
--------------------------------------------------------------
$molecule
0 1
C	0.002661	-0.576309	0.019119
C	0.002661	0.287291	1.118519
C	0.002761	1.671191	0.795819
H	0.002661	-0.081509	2.155219
C	0.002761	1.891891	-0.593381
S	0.002661	0.366091	-1.467681
C	0.002761	2.758991	1.833719
H	0.002761	2.333291	2.855819
H	-0.889639	3.413291	1.745319
H	0.895161	3.413191	1.745319
C	0.002661	-2.017009	0.019119
H	-0.691439	-2.017209	-0.808281
H	-0.624939	-2.720809	0.545619
H	0.728161	-2.535909	-0.589681
H	0.002761	2.841091	-1.142481
$end

$rem
JOBTYPE		SP
EXCHANGE	HF
CORRELATION	pRIMP2
BASIS		cc-pvtz
METHOD		rimp2
AUX_BASIS	rimp2-cc-pvtz
SOLVENT_METHOD	PCM
PURECART	11111
SYMMETRY	false
MEM_TOTAL	110000
SCF_CONVERGENCE = 6
THRESH=10
$end

$solvent
dielectric 4.90
$end
--------------------------------------------------------------

   10    -629.4222451989      6.18e-07  Convergence criterion met
 Total energy in the final basis set =     -629.4222451989
        RIMP2         total energy =      -630.5985944316 a.u.
 Total job time:  158.64s(wall), 155.85s(cpu)
        *  Thank you very much for using Q-Chem.  Have a nice day.  *
 Q-Chem 5.4, Q-Chem, Inc., Pleasanton, CA (2021)
 Q-Chem 5.4.0 for Intel X86 EM64T Linux

User input:
--------------------------------------------------------------
$molecule
0 1
C	0.002661	-0.576309	0.019119
C	0.002661	0.287291	1.118519
C	0.002761	1.671191	0.795819
H	0.002661	-0.081509	2.155219
C	0.002761	1.891891	-0.593381
S	0.002661	0.366091	-1.467681
C	0.002761	2.758991	1.833719
H	0.002761	2.333291	2.855819
H	-0.889639	3.413291	1.745319
H	0.895161	3.413191	1.745319
C	0.002661	-2.017009	0.019119
H	-0.691439	-2.017209	-0.808281
H	-0.624939	-2.720809	0.545619
H	0.728161	-2.535909	-0.589681
H	0.002761	2.841091	-1.142481
$end

$rem
JOBTYPE		SP
EXCHANGE	HF
CORRELATION	pRIMP2
BASIS		cc-pvtz
METHOD		rimp2
AUX_BASIS	rimp2-cc-pvtz
SOLVENT_METHOD	PCM
PURECART	11111
SYMMETRY	false
MEM_TOTAL	110000
SCF_CONVERGENCE = 6
THRESH=10
$end

$solvent
dielectric 4.90
$end
--------------------------------------------------------------

             Standard Nuclear Orientation (Angstroms)
    I     Atom           X                Y                Z
 ----------------------------------------------------------------
    1      C       0.0026610000    -0.5763090000     0.0191190000
    2      C       0.0026610000     0.2872910000     1.1185190000
    3      C       0.0027610000     1.6711910000     0.7958190000
    4      H       0.0026610000    -0.0815090000     2.1552190000
    5      C       0.0027610000     1.8918910000    -0.5933810000
    6      S       0.0026610000     0.3660910000    -1.4676810000
    7      C       0.0027610000     2.7589910000     1.8337190000
    8      H       0.0027610000     2.3332910000     2.8558190000
    9      H      -0.8896390000     3.4132910000     1.7453190000
   10      H       0.8951610000     3.4131910000     1.7453190000
   11      C       0.0026610000    -2.0170090000     0.0191190000
   12      H      -0.6914390000    -2.0172090000    -0.8082810000
   13      H      -0.6249390000    -2.7208090000     0.5456190000
   14      H       0.7281610000    -2.5359090000    -0.5896810000
   15      H       0.0027610000     2.8410910000    -1.1424810000
 ----------------------------------------------------------------

   10    -629.4222451989      6.18e-07  Convergence criterion met
 Total energy in the final basis set =     -629.4222451989
        RIMP2         total energy =      -630.5985944316 a.u.

                    Orbital Energies (a.u.)
 --------------------------------------------------------------

 Alpha MOs
 -- Occupied --
-91.9794 -11.2794 -11.2545 -11.2468 -11.2266 -11.2266 -11.2182  -8.9793
 -6.6602  -6.6597  -6.6591  -1.1606  -1.0556  -0.9956  -0.9455  -0.8818
 -0.7465  -0.7182  -0.6488  -0.5902  -0.5754  -0.5654  -0.5535  -0.5473
 -0.5083  -0.4890  -0.4651  -0.4506  -0.3392  -0.2967

          Ground-State Mulliken Net Atomic Charges

     Atom                 Charge (a.u.)
  ----------------------------------------
      1 C                     0.055417
      2 C                    -0.279620
      3 C                     0.041244
      4 H                     0.180721
      5 C                    -0.262047
      6 S                    -0.003951
      7 C                    -0.273558
      8 H                     0.101597
      9 H                     0.107012
     10 H                     0.107222
     11 C                    -0.375382
     12 H                     0.121199
     13 H                     0.156552
     14 H                     0.129063
     15 H                     0.194531
  ----------------------------------------
  Sum of atomic charges =     0.000000

                    Cartesian Multipole Moments
 -----------------------------------------------------------------
    Charge (ESU x 10^10)
                -0.0000
    Dipole Moment (Debye)
         X      -0.4274      Y      -0.2661      Z       0.9352
       Tot       1.0621
    Quadrupole Moments (Debye-Ang)
        XX     -53.9914     XY       1.0573     YY     -41.9367
        XZ      -0.3145     YZ       1.2194     ZZ     -48.7580

 Total job time:  156.69s(wall), 155.13s(cpu)
        *  Thank you very much for using Q-Chem.  Have a nice day.  *
