 Q-Chem 5.4, Q-Chem, Inc., Pleasanton, CA (2021)
 Q-Chem 5.4.0 for Intel X86 EM64T Linux

User input:
--------------------------------------------------------------
$molecule
0 1
C	-0.172652	-0.553191	0.018946
C	0.050848	0.281009	1.118346
C	0.409048	1.617709	0.795646
H	-0.044552	-0.075291	2.155046
C	0.466248	1.830809	-0.593554
S	0.071248	0.357109	-1.467854
C	0.690648	2.668409	1.833546
H	0.580448	2.257309	2.855646
H	-0.001952	3.531409	1.745146
H	1.721948	3.069409	1.745146
C	-0.172652	-1.993891	0.018946
H	-0.712552	-1.993591	-0.916454
H	0.536848	-2.697691	-0.390554
H	-0.992852	-2.512791	0.492546
H	0.711948	2.747709	-1.142654
$end

$rem
JOBTYPE		SP
EXCHANGE	HF
CORRELATION	pRIMP2
BASIS		cc-pvtz
METHOD		rimp2
AUX_BASIS	rimp2-cc-pvtz
SOLVENT_METHOD	PCM
PURECART	11111
SYMMETRY	false
MEM_TOTAL	110000
SCF_CONVERGENCE = 6
THRESH=10
$end

$solvent
dielectric 4.90
$end
--------------------------------------------------------------

             Standard Nuclear Orientation (Angstroms)
    I     Atom           X                Y                Z
 ----------------------------------------------------------------
    1      C      -0.1726520000    -0.5531910000     0.0189460000
    2      C       0.0508480000     0.2810090000     1.1183460000
    3      C       0.4090480000     1.6177090000     0.7956460000
    4      H      -0.0445520000    -0.0752910000     2.1550460000
    5      C       0.4662480000     1.8308090000    -0.5935540000
    6      S       0.0712480000     0.3571090000    -1.4678540000
    7      C       0.6906480000     2.6684090000     1.8335460000
    8      H       0.5804480000     2.2573090000     2.8556460000
    9      H      -0.0019520000     3.5314090000     1.7451460000
   10      H       1.7219480000     3.0694090000     1.7451460000
   11      C      -0.1726520000    -1.9938910000     0.0189460000
   12      H      -0.7125520000    -1.9935910000    -0.9164540000
   13      H       0.5368480000    -2.6976910000    -0.3905540000
   14      H      -0.9928520000    -2.5127910000     0.4925460000
   15      H       0.7119480000     2.7477090000    -1.1426540000
 ----------------------------------------------------------------

   10    -629.4164118478      5.37e-07  Convergence criterion met
 Total energy in the final basis set =     -629.4164118478
        RIMP2         total energy =      -630.5949728863 a.u.

                    Orbital Energies (a.u.)
 --------------------------------------------------------------

 Alpha MOs
 -- Occupied --
-91.9797 -11.2744 -11.2582 -11.2472 -11.2298 -11.2269 -11.2159  -8.9796
 -6.6605  -6.6600  -6.6594  -1.1612  -1.0548  -0.9957  -0.9456  -0.8820
 -0.7475  -0.7191  -0.6472  -0.5905  -0.5755  -0.5686  -0.5516  -0.5471
 -0.5105  -0.4833  -0.4644  -0.4475  -0.3384  -0.3001

          Ground-State Mulliken Net Atomic Charges

     Atom                 Charge (a.u.)
  ----------------------------------------
      1 C                     0.025436
      2 C                    -0.252408
      3 C                     0.033164
      4 H                     0.180310
      5 C                    -0.251913
      6 S                    -0.002470
      7 C                    -0.273008
      8 H                     0.101737
      9 H                     0.106844
     10 H                     0.106808
     11 C                    -0.361376
     12 H                     0.114115
     13 H                     0.143310
     14 H                     0.134936
     15 H                     0.194514
  ----------------------------------------
  Sum of atomic charges =     0.000000

                    Cartesian Multipole Moments
 -----------------------------------------------------------------
    Charge (ESU x 10^10)
                -0.0000
    Dipole Moment (Debye)
         X       0.0695      Y      -0.0144      Z       0.9547
       Tot       0.9573
    Quadrupole Moments (Debye-Ang)
        XX     -53.2172     XY       2.8767     YY     -42.7651
        XZ      -0.1756     YZ       1.3384     ZZ     -48.7302

 Total job time:  155.37s(wall), 154.47s(cpu)
        *  Thank you very much for using Q-Chem.  Have a nice day.  *
