 Q-Chem 5.4, Q-Chem, Inc., Pleasanton, CA (2021)
 Q-Chem 5.4.0 for Intel X86 EM64T Linux

User input:
--------------------------------------------------------------
$molecule
0 1
C	-0.063823	-0.573729	0.016439
C	0.011477	0.286571	1.115839
C	0.132077	1.665271	0.793139
H	-0.020623	-0.080829	2.152539
C	0.151377	1.885071	-0.596061
S	0.018377	0.365071	-1.470361
C	0.226977	2.748871	1.831039
H	0.189877	2.324771	2.853139
H	-0.605023	3.478371	1.742639
H	1.172977	3.322871	1.742639
C	-0.063823	-2.014429	0.016439
H	0.999777	-2.014129	-0.170961
H	0.078377	-2.718229	0.823239
H	-0.228323	-2.533329	-0.916261
H	0.234077	2.830671	-1.145161
$end

$rem
JOBTYPE		SP
EXCHANGE	HF
CORRELATION	pRIMP2
BASIS		cc-pvtz
METHOD		rimp2
AUX_BASIS	rimp2-cc-pvtz
SOLVENT_METHOD	PCM
PURECART	11111
SYMMETRY	false
MEM_TOTAL	110000
SCF_CONVERGENCE = 6
THRESH=10
$end

$solvent
dielectric 4.90
$end
--------------------------------------------------------------

             Standard Nuclear Orientation (Angstroms)
    I     Atom           X                Y                Z
 ----------------------------------------------------------------
    1      C      -0.0638230000    -0.5737290000     0.0164390000
    2      C       0.0114770000     0.2865710000     1.1158390000
    3      C       0.1320770000     1.6652710000     0.7931390000
    4      H      -0.0206230000    -0.0808290000     2.1525390000
    5      C       0.1513770000     1.8850710000    -0.5960610000
    6      S       0.0183770000     0.3650710000    -1.4703610000
    7      C       0.2269770000     2.7488710000     1.8310390000
    8      H       0.1898770000     2.3247710000     2.8531390000
    9      H      -0.6050230000     3.4783710000     1.7426390000
   10      H       1.1729770000     3.3228710000     1.7426390000
   11      C      -0.0638230000    -2.0144290000     0.0164390000
   12      H       0.9997770000    -2.0141290000    -0.1709610000
   13      H       0.0783770000    -2.7182290000     0.8232390000
   14      H      -0.2283230000    -2.5333290000    -0.9162610000
   15      H       0.2340770000     2.8306710000    -1.1451610000
 ----------------------------------------------------------------

   10    -629.4247082499      7.17e-07  Convergence criterion met
 Total energy in the final basis set =     -629.4247082499
        RIMP2         total energy =      -630.5994627885 a.u.

                    Orbital Energies (a.u.)
 --------------------------------------------------------------

 Alpha MOs
 -- Occupied --
-91.9789 -11.2857 -11.2489 -11.2468 -11.2263 -11.2227 -11.2220  -8.9787
 -6.6597  -6.6592  -6.6585  -1.1604  -1.0566  -0.9967  -0.9430  -0.8822
 -0.7443  -0.7182  -0.6497  -0.5869  -0.5759  -0.5665  -0.5531  -0.5472
 -0.5069  -0.4947  -0.4664  -0.4570  -0.3390  -0.2886

          Ground-State Mulliken Net Atomic Charges

     Atom                 Charge (a.u.)
  ----------------------------------------
      1 C                     0.064949
      2 C                    -0.314307
      3 C                     0.054128
      4 H                     0.176683
      5 C                    -0.281889
      6 S                     0.000574
      7 C                    -0.273865
      8 H                     0.101370
      9 H                     0.107236
     10 H                     0.107383
     11 C                    -0.381350
     12 H                     0.143301
     13 H                     0.165139
     14 H                     0.137337
     15 H                     0.193311
  ----------------------------------------
  Sum of atomic charges =     0.000000

                    Cartesian Multipole Moments
 -----------------------------------------------------------------
    Charge (ESU x 10^10)
                -0.0000
    Dipole Moment (Debye)
         X       0.8204      Y      -0.7455      Z       1.2592
       Tot       1.6776
    Quadrupole Moments (Debye-Ang)
        XX     -54.4117     XY      -0.7625     YY     -41.7154
        XZ       0.1835     YZ       0.4481     ZZ     -48.6139

 Total job time:  159.83s(wall), 158.76s(cpu)
        *  Thank you very much for using Q-Chem.  Have a nice day.  *
