 Q-Chem 5.4, Q-Chem, Inc., Pleasanton, CA (2021)
 Q-Chem 5.4.0 for Intel X86 EM64T Linux

User input:
--------------------------------------------------------------
$molecule
0 1
C	-0.122302	-0.566007	0.016960
C	0.027698	0.284493	1.116360
C	0.267998	1.647393	0.793660
H	-0.036402	-0.078707	2.153060
C	0.306398	1.864693	-0.595540
S	0.041398	0.362093	-1.469840
C	0.456898	2.718593	1.831560
H	0.382998	2.299393	2.853660
H	-0.308302	3.517893	1.743160
H	1.449398	3.207893	1.743160
C	-0.122302	-2.006707	0.016960
H	0.813098	-2.006907	-0.522940
H	-0.531802	-2.710507	-0.692540
H	0.351298	-2.525607	0.837160
H	0.471198	2.799393	-1.144640
$end

$rem
JOBTYPE		SP
EXCHANGE	HF
CORRELATION	pRIMP2
BASIS		cc-pvtz
METHOD		rimp2
AUX_BASIS	rimp2-cc-pvtz
SOLVENT_METHOD	PCM
PURECART	11111
SYMMETRY	false
MEM_TOTAL	110000
SCF_CONVERGENCE = 6
THRESH=10
$end

$solvent
dielectric 4.90
$end
--------------------------------------------------------------

   10    -629.4235229109      6.76e-07  Convergence criterion met
 Total energy in the final basis set =     -629.4235229109
        RIMP2         total energy =      -630.5991780894 a.u.
 Total job time:  157.46s(wall), 155.85s(cpu)
        *  Thank you very much for using Q-Chem.  Have a nice day.  *
 Q-Chem 5.4, Q-Chem, Inc., Pleasanton, CA (2021)
 Q-Chem 5.4.0 for Intel X86 EM64T Linux

User input:
--------------------------------------------------------------
$molecule
0 1
C	-0.122302	-0.566007	0.016960
C	0.027698	0.284493	1.116360
C	0.267998	1.647393	0.793660
H	-0.036402	-0.078707	2.153060
C	0.306398	1.864693	-0.595540
S	0.041398	0.362093	-1.469840
C	0.456898	2.718593	1.831560
H	0.382998	2.299393	2.853660
H	-0.308302	3.517893	1.743160
H	1.449398	3.207893	1.743160
C	-0.122302	-2.006707	0.016960
H	0.813098	-2.006907	-0.522940
H	-0.531802	-2.710507	-0.692540
H	0.351298	-2.525607	0.837160
H	0.471198	2.799393	-1.144640
$end

$rem
JOBTYPE		SP
EXCHANGE	HF
CORRELATION	pRIMP2
BASIS		cc-pvtz
METHOD		rimp2
AUX_BASIS	rimp2-cc-pvtz
SOLVENT_METHOD	PCM
PURECART	11111
SYMMETRY	false
MEM_TOTAL	110000
SCF_CONVERGENCE = 6
THRESH=10
$end

$solvent
dielectric 4.90
$end
--------------------------------------------------------------

             Standard Nuclear Orientation (Angstroms)
    I     Atom           X                Y                Z
 ----------------------------------------------------------------
    1      C      -0.1223020000    -0.5660070000     0.0169600000
    2      C       0.0276980000     0.2844930000     1.1163600000
    3      C       0.2679980000     1.6473930000     0.7936600000
    4      H      -0.0364020000    -0.0787070000     2.1530600000
    5      C       0.3063980000     1.8646930000    -0.5955400000
    6      S       0.0413980000     0.3620930000    -1.4698400000
    7      C       0.4568980000     2.7185930000     1.8315600000
    8      H       0.3829980000     2.2993930000     2.8536600000
    9      H      -0.3083020000     3.5178930000     1.7431600000
   10      H       1.4493980000     3.2078930000     1.7431600000
   11      C      -0.1223020000    -2.0067070000     0.0169600000
   12      H       0.8130980000    -2.0069070000    -0.5229400000
   13      H      -0.5318020000    -2.7105070000    -0.6925400000
   14      H       0.3512980000    -2.5256070000     0.8371600000
   15      H       0.4711980000     2.7993930000    -1.1446400000
 ----------------------------------------------------------------

   10    -629.4235229109      6.76e-07  Convergence criterion met
 Total energy in the final basis set =     -629.4235229109
        RIMP2         total energy =      -630.5991780894 a.u.

                    Orbital Energies (a.u.)
 --------------------------------------------------------------

 Alpha MOs
 -- Occupied --
-91.9770 -11.2833 -11.2518 -11.2469 -11.2266 -11.2259 -11.2209  -8.9771
 -6.6581  -6.6575  -6.6569  -1.1610  -1.0563  -0.9963  -0.9436  -0.8820
 -0.7456  -0.7186  -0.6476  -0.5906  -0.5769  -0.5674  -0.5502  -0.5478
 -0.5074  -0.4927  -0.4654  -0.4537  -0.3394  -0.2919

          Ground-State Mulliken Net Atomic Charges

     Atom                 Charge (a.u.)
  ----------------------------------------
      1 C                     0.063567
      2 C                    -0.310388
      3 C                     0.054352
      4 H                     0.180089
      5 C                    -0.271676
      6 S                    -0.006351
      7 C                    -0.272746
      8 H                     0.101309
      9 H                     0.107426
     10 H                     0.107273
     11 C                    -0.374770
     12 H                     0.135612
     13 H                     0.154925
     14 H                     0.138260
     15 H                     0.193117
  ----------------------------------------
  Sum of atomic charges =     0.000000

                    Cartesian Multipole Moments
 -----------------------------------------------------------------
    Charge (ESU x 10^10)
                -0.0000
    Dipole Moment (Debye)
         X       0.8327      Y      -0.5454      Z       1.1118
       Tot       1.4923
    Quadrupole Moments (Debye-Ang)
        XX     -54.1355     XY       0.2733     YY     -42.0712
        XZ       0.3569     YZ       1.1478     ZZ     -48.6799

 Total job time:  156.31s(wall), 155.10s(cpu)
        *  Thank you very much for using Q-Chem.  Have a nice day.  *
