 Q-Chem 5.4, Q-Chem, Inc., Pleasanton, CA (2021)
 Q-Chem 5.4.0 for Intel X86 EM64T Linux

User input:
--------------------------------------------------------------
$molecule
0 1
C	-0.176984	-0.553189	0.019710
C	0.046516	0.281011	1.119110
C	0.404716	1.617711	0.796410
H	-0.048884	-0.075289	2.155810
C	0.461916	1.830811	-0.592790
S	0.066916	0.357111	-1.467090
C	0.686316	2.668411	1.834310
H	0.576116	2.257311	2.856410
H	-0.006284	3.531411	1.745910
H	1.717616	3.069411	1.745910
C	-0.176984	-1.993889	0.019710
H	0.010716	-1.994089	-1.043890
H	-0.983684	-2.697689	-0.122590
H	0.755716	-2.512789	0.184210
H	0.707616	2.747711	-1.141890
$end

$rem
JOBTYPE		SP
EXCHANGE	HF
CORRELATION	pRIMP2
BASIS		cc-pvtz
METHOD		rimp2
AUX_BASIS	rimp2-cc-pvtz
SOLVENT_METHOD	PCM
PURECART	11111
SYMMETRY	false
MEM_TOTAL	110000
SCF_CONVERGENCE = 6
THRESH=10
$end

$solvent
dielectric 4.90
$end
--------------------------------------------------------------

             Standard Nuclear Orientation (Angstroms)
    I     Atom           X                Y                Z
 ----------------------------------------------------------------
    1      C      -0.1769840000    -0.5531890000     0.0197100000
    2      C       0.0465160000     0.2810110000     1.1191100000
    3      C       0.4047160000     1.6177110000     0.7964100000
    4      H      -0.0488840000    -0.0752890000     2.1558100000
    5      C       0.4619160000     1.8308110000    -0.5927900000
    6      S       0.0669160000     0.3571110000    -1.4670900000
    7      C       0.6863160000     2.6684110000     1.8343100000
    8      H       0.5761160000     2.2573110000     2.8564100000
    9      H      -0.0062840000     3.5314110000     1.7459100000
   10      H       1.7176160000     3.0694110000     1.7459100000
   11      C      -0.1769840000    -1.9938890000     0.0197100000
   12      H       0.0107160000    -1.9940890000    -1.0438900000
   13      H      -0.9836840000    -2.6976890000    -0.1225900000
   14      H       0.7557160000    -2.5127890000     0.1842100000
   15      H       0.7076160000     2.7477110000    -1.1418900000
 ----------------------------------------------------------------

   10    -629.4164990496      5.45e-07  Convergence criterion met
 Total energy in the final basis set =     -629.4164990496
        RIMP2         total energy =      -630.5951918407 a.u.

                    Orbital Energies (a.u.)
 --------------------------------------------------------------

 Alpha MOs
 -- Occupied --
-91.9798 -11.2738 -11.2586 -11.2471 -11.2302 -11.2269 -11.2154  -8.9798
 -6.6607  -6.6601  -6.6595  -1.1616  -1.0552  -0.9951  -0.9461  -0.8813
 -0.7483  -0.7190  -0.6475  -0.5916  -0.5757  -0.5657  -0.5532  -0.5475
 -0.5092  -0.4852  -0.4647  -0.4437  -0.3381  -0.3035

          Ground-State Mulliken Net Atomic Charges

     Atom                 Charge (a.u.)
  ----------------------------------------
      1 C                     0.049573
      2 C                    -0.269254
      3 C                     0.045746
      4 H                     0.179299
      5 C                    -0.258933
      6 S                    -0.003088
      7 C                    -0.272587
      8 H                     0.101895
      9 H                     0.106966
     10 H                     0.106707
     11 C                    -0.369293
     12 H                     0.114536
     13 H                     0.144459
     14 H                     0.128694
     15 H                     0.195280
  ----------------------------------------
  Sum of atomic charges =     0.000000

                    Cartesian Multipole Moments
 -----------------------------------------------------------------
    Charge (ESU x 10^10)
                -0.0000
    Dipole Moment (Debye)
         X       0.5428      Y       0.0358      Z       0.8721
       Tot       1.0279
    Quadrupole Moments (Debye-Ang)
        XX     -53.2107     XY       2.0646     YY     -42.8889
        XZ       0.2559     YZ       1.4834     ZZ     -48.7787

 Total job time:  156.51s(wall), 155.14s(cpu)
        *  Thank you very much for using Q-Chem.  Have a nice day.  *
