 Q-Chem 5.4, Q-Chem, Inc., Pleasanton, CA (2021)
 Q-Chem 5.4.0 for Intel X86 EM64T Linux

User input:
--------------------------------------------------------------
$molecule
0 1
C	-0.000295	-0.576312	0.019910
C	-0.000295	0.287288	1.119310
C	-0.000195	1.671188	0.796610
H	-0.000295	-0.081512	2.156010
C	-0.000195	1.891888	-0.592590
S	-0.000295	0.366088	-1.466890
C	-0.000195	2.758988	1.834510
H	-0.000195	2.333288	2.856610
H	-0.892595	3.413288	1.746110
H	0.892205	3.413188	1.746110
C	-0.000295	-2.017012	0.019910
H	0.187405	-2.016712	-1.043690
H	0.806405	-2.720812	0.162210
H	-0.932995	-2.535912	-0.144590
H	-0.000195	2.841088	-1.141690
$end

$rem
JOBTYPE		SP
EXCHANGE	HF
CORRELATION	pRIMP2
BASIS		cc-pvtz
METHOD		rimp2
AUX_BASIS	rimp2-cc-pvtz
SOLVENT_METHOD	PCM
PURECART	11111
SYMMETRY	false
MEM_TOTAL	110000
SCF_CONVERGENCE = 6
THRESH=10
$end

$solvent
dielectric 4.90
$end
--------------------------------------------------------------

   10    -629.4206677172      5.50e-07  Convergence criterion met
 Total energy in the final basis set =     -629.4206677172
        RIMP2         total energy =      -630.5983770550 a.u.
 Total job time:  159.56s(wall), 157.44s(cpu)
        *  Thank you very much for using Q-Chem.  Have a nice day.  *
 Q-Chem 5.4, Q-Chem, Inc., Pleasanton, CA (2021)
 Q-Chem 5.4.0 for Intel X86 EM64T Linux

User input:
--------------------------------------------------------------
$molecule
0 1
C	-0.000295	-0.576312	0.019910
C	-0.000295	0.287288	1.119310
C	-0.000195	1.671188	0.796610
H	-0.000295	-0.081512	2.156010
C	-0.000195	1.891888	-0.592590
S	-0.000295	0.366088	-1.466890
C	-0.000195	2.758988	1.834510
H	-0.000195	2.333288	2.856610
H	-0.892595	3.413288	1.746110
H	0.892205	3.413188	1.746110
C	-0.000295	-2.017012	0.019910
H	0.187405	-2.016712	-1.043690
H	0.806405	-2.720812	0.162210
H	-0.932995	-2.535912	-0.144590
H	-0.000195	2.841088	-1.141690
$end

$rem
JOBTYPE		SP
EXCHANGE	HF
CORRELATION	pRIMP2
BASIS		cc-pvtz
METHOD		rimp2
AUX_BASIS	rimp2-cc-pvtz
SOLVENT_METHOD	PCM
PURECART	11111
SYMMETRY	false
MEM_TOTAL	110000
SCF_CONVERGENCE = 6
THRESH=10
$end

$solvent
dielectric 4.90
$end
--------------------------------------------------------------

             Standard Nuclear Orientation (Angstroms)
    I     Atom           X                Y                Z
 ----------------------------------------------------------------
    1      C      -0.0002950000    -0.5763120000     0.0199100000
    2      C      -0.0002950000     0.2872880000     1.1193100000
    3      C      -0.0001950000     1.6711880000     0.7966100000
    4      H      -0.0002950000    -0.0815120000     2.1560100000
    5      C      -0.0001950000     1.8918880000    -0.5925900000
    6      S      -0.0002950000     0.3660880000    -1.4668900000
    7      C      -0.0001950000     2.7589880000     1.8345100000
    8      H      -0.0001950000     2.3332880000     2.8566100000
    9      H      -0.8925950000     3.4132880000     1.7461100000
   10      H       0.8922050000     3.4131880000     1.7461100000
   11      C      -0.0002950000    -2.0170120000     0.0199100000
   12      H       0.1874050000    -2.0167120000    -1.0436900000
   13      H       0.8064050000    -2.7208120000     0.1622100000
   14      H      -0.9329950000    -2.5359120000    -0.1445900000
   15      H      -0.0001950000     2.8410880000    -1.1416900000
 ----------------------------------------------------------------

   10    -629.4206677172      5.50e-07  Convergence criterion met
 Total energy in the final basis set =     -629.4206677172
        RIMP2         total energy =      -630.5983770550 a.u.

                    Orbital Energies (a.u.)
 --------------------------------------------------------------

 Alpha MOs
 -- Occupied --
-91.9807 -11.2752 -11.2576 -11.2470 -11.2289 -11.2268 -11.2161  -8.9805
 -6.6614  -6.6609  -6.6603  -1.1609  -1.0552  -0.9953  -0.9464  -0.8817
 -0.7479  -0.7185  -0.6484  -0.5914  -0.5753  -0.5656  -0.5538  -0.5474
 -0.5088  -0.4862  -0.4650  -0.4444  -0.3385  -0.3035

          Ground-State Mulliken Net Atomic Charges

     Atom                 Charge (a.u.)
  ----------------------------------------
      1 C                     0.059010
      2 C                    -0.264876
      3 C                     0.040257
      4 H                     0.180271
      5 C                    -0.260319
      6 S                    -0.002937
      7 C                    -0.273415
      8 H                     0.101908
      9 H                     0.106882
     10 H                     0.106849
     11 C                    -0.371814
     12 H                     0.113121
     13 H                     0.146131
     14 H                     0.123526
     15 H                     0.195404
  ----------------------------------------
  Sum of atomic charges =     0.000000

                    Cartesian Multipole Moments
 -----------------------------------------------------------------
    Charge (ESU x 10^10)
                -0.0000
    Dipole Moment (Debye)
         X       0.0955      Y       0.0167      Z       0.8481
       Tot       0.8537
    Quadrupole Moments (Debye-Ang)
        XX     -53.7082     XY      -0.3643     YY     -42.1618
        XZ       0.0957     YZ       1.4613     ZZ     -48.8391

 Total job time:  157.67s(wall), 155.26s(cpu)
        *  Thank you very much for using Q-Chem.  Have a nice day.  *
