 Q-Chem 5.4, Q-Chem, Inc., Pleasanton, CA (2021)
 Q-Chem 5.4.0 for Intel X86 EM64T Linux

User input:
--------------------------------------------------------------
$molecule
0 1
C	-0.432126	-0.417597	0.012109
C	0.122974	0.243903	1.111509
C	1.012574	1.304103	0.788809
H	-0.114026	-0.038597	2.148209
C	1.154474	1.473103	-0.600391
S	0.173674	0.304303	-1.474691
C	1.711774	2.137303	1.826709
H	1.438174	1.811303	2.848809
H	1.448774	3.212103	1.738309
H	2.815974	2.064903	1.738309
C	-0.432126	-1.858297	0.012109
H	-1.367526	-1.857997	0.552009
H	-0.841626	-2.562097	-0.697391
H	0.041474	-2.377197	0.832309
H	1.764574	2.200203	-1.149491
$end

$rem
JOBTYPE		SP
EXCHANGE	HF
CORRELATION	pRIMP2
BASIS		cc-pvtz
METHOD		rimp2
AUX_BASIS	rimp2-cc-pvtz
SOLVENT_METHOD	PCM
PURECART	11111
SYMMETRY	false
MEM_TOTAL	110000
SCF_CONVERGENCE = 6
THRESH=10
$end

$solvent
dielectric 4.90
$end
--------------------------------------------------------------

             Standard Nuclear Orientation (Angstroms)
    I     Atom           X                Y                Z
 ----------------------------------------------------------------
    1      C      -0.4321260000    -0.4175970000     0.0121090000
    2      C       0.1229740000     0.2439030000     1.1115090000
    3      C       1.0125740000     1.3041030000     0.7888090000
    4      H      -0.1140260000    -0.0385970000     2.1482090000
    5      C       1.1544740000     1.4731030000    -0.6003910000
    6      S       0.1736740000     0.3043030000    -1.4746910000
    7      C       1.7117740000     2.1373030000     1.8267090000
    8      H       1.4381740000     1.8113030000     2.8488090000
    9      H       1.4487740000     3.2121030000     1.7383090000
   10      H       2.8159740000     2.0649030000     1.7383090000
   11      C      -0.4321260000    -1.8582970000     0.0121090000
   12      H      -1.3675260000    -1.8579970000     0.5520090000
   13      H      -0.8416260000    -2.5620970000    -0.6973910000
   14      H       0.0414740000    -2.3771970000     0.8323090000
   15      H       1.7645740000     2.2002030000    -1.1494910000
 ----------------------------------------------------------------

   10    -629.3867314152      6.36e-07  Convergence criterion met
 Total energy in the final basis set =     -629.3867314152
        RIMP2         total energy =      -630.5724126963 a.u.

                    Orbital Energies (a.u.)
 --------------------------------------------------------------

 Alpha MOs
 -- Occupied --
-91.9731 -11.2673 -11.2624 -11.2482 -11.2373 -11.2276 -11.2124  -8.9736
 -6.6545  -6.6537  -6.6533  -1.1641  -1.0541  -0.9978  -0.9389  -0.8833
 -0.7444  -0.7242  -0.6439  -0.5872  -0.5787  -0.5660  -0.5560  -0.5432
 -0.5139  -0.4919  -0.4597  -0.4352  -0.3368  -0.2899

          Ground-State Mulliken Net Atomic Charges

     Atom                 Charge (a.u.)
  ----------------------------------------
      1 C                     0.002150
      2 C                    -0.252161
      3 C                     0.032609
      4 H                     0.177885
      5 C                    -0.236803
      6 S                     0.003416
      7 C                    -0.269881
      8 H                     0.101318
      9 H                     0.107109
     10 H                     0.106267
     11 C                    -0.388123
     12 H                     0.129285
     13 H                     0.154047
     14 H                     0.140993
     15 H                     0.191892
  ----------------------------------------
  Sum of atomic charges =     0.000000

                    Cartesian Multipole Moments
 -----------------------------------------------------------------
    Charge (ESU x 10^10)
                -0.0000
    Dipole Moment (Debye)
         X       0.5729      Y      -0.1732      Z       1.9249
       Tot       2.0158
    Quadrupole Moments (Debye-Ang)
        XX     -50.3881     XY       5.7208     YY     -46.3029
        XZ       0.2688     YZ      -0.3095     ZZ     -48.3397

 Total job time:  156.80s(wall), 155.50s(cpu)
        *  Thank you very much for using Q-Chem.  Have a nice day.  *
