 Q-Chem 5.4, Q-Chem, Inc., Pleasanton, CA (2021)
 Q-Chem 5.4.0 for Intel X86 EM64T Linux

User input:
--------------------------------------------------------------
$molecule
0 1
C	-0.112960	-0.566007	0.015607
C	0.037040	0.284493	1.115007
C	0.277340	1.647393	0.792307
H	-0.027060	-0.078707	2.151707
C	0.315740	1.864693	-0.596893
S	0.050740	0.362093	-1.471193
C	0.466240	2.718593	1.830207
H	0.392340	2.299393	2.852307
H	-0.298960	3.517893	1.741807
H	1.458740	3.207893	1.741807
C	-0.112960	-2.006707	0.015607
H	-1.192960	-2.006907	0.015507
H	-0.113060	-2.710507	0.834807
H	-0.112960	-2.525607	-0.931493
H	0.480540	2.799393	-1.145993
$end

$rem
JOBTYPE		SP
EXCHANGE	HF
CORRELATION	pRIMP2
BASIS		cc-pvtz
METHOD		rimp2
AUX_BASIS	rimp2-cc-pvtz
SOLVENT_METHOD	PCM
PURECART	11111
SYMMETRY	false
MEM_TOTAL	110000
SCF_CONVERGENCE = 6
THRESH=10
$end

$solvent
dielectric 4.90
$end
--------------------------------------------------------------

   10    -629.4205247255      6.91e-07  Convergence criterion met
 Total energy in the final basis set =     -629.4205247255
        RIMP2         total energy =      -630.5965249576 a.u.
 Total job time:  156.31s(wall), 154.84s(cpu)
        *  Thank you very much for using Q-Chem.  Have a nice day.  *
 Q-Chem 5.4, Q-Chem, Inc., Pleasanton, CA (2021)
 Q-Chem 5.4.0 for Intel X86 EM64T Linux

User input:
--------------------------------------------------------------
$molecule
0 1
C	-0.112960	-0.566007	0.015607
C	0.037040	0.284493	1.115007
C	0.277340	1.647393	0.792307
H	-0.027060	-0.078707	2.151707
C	0.315740	1.864693	-0.596893
S	0.050740	0.362093	-1.471193
C	0.466240	2.718593	1.830207
H	0.392340	2.299393	2.852307
H	-0.298960	3.517893	1.741807
H	1.458740	3.207893	1.741807
C	-0.112960	-2.006707	0.015607
H	-1.192960	-2.006907	0.015507
H	-0.113060	-2.710507	0.834807
H	-0.112960	-2.525607	-0.931493
H	0.480540	2.799393	-1.145993
$end

$rem
JOBTYPE		SP
EXCHANGE	HF
CORRELATION	pRIMP2
BASIS		cc-pvtz
METHOD		rimp2
AUX_BASIS	rimp2-cc-pvtz
SOLVENT_METHOD	PCM
PURECART	11111
SYMMETRY	false
MEM_TOTAL	110000
SCF_CONVERGENCE = 6
THRESH=10
$end

$solvent
dielectric 4.90
$end
--------------------------------------------------------------

             Standard Nuclear Orientation (Angstroms)
    I     Atom           X                Y                Z
 ----------------------------------------------------------------
    1      C      -0.1129600000    -0.5660070000     0.0156070000
    2      C       0.0370400000     0.2844930000     1.1150070000
    3      C       0.2773400000     1.6473930000     0.7923070000
    4      H      -0.0270600000    -0.0787070000     2.1517070000
    5      C       0.3157400000     1.8646930000    -0.5968930000
    6      S       0.0507400000     0.3620930000    -1.4711930000
    7      C       0.4662400000     2.7185930000     1.8302070000
    8      H       0.3923400000     2.2993930000     2.8523070000
    9      H      -0.2989600000     3.5178930000     1.7418070000
   10      H       1.4587400000     3.2078930000     1.7418070000
   11      C      -0.1129600000    -2.0067070000     0.0156070000
   12      H      -1.1929600000    -2.0069070000     0.0155070000
   13      H      -0.1130600000    -2.7105070000     0.8348070000
   14      H      -0.1129600000    -2.5256070000    -0.9314930000
   15      H       0.4805400000     2.7993930000    -1.1459930000
 ----------------------------------------------------------------

   10    -629.4205247255      6.91e-07  Convergence criterion met
 Total energy in the final basis set =     -629.4205247255
        RIMP2         total energy =      -630.5965249576 a.u.

                    Orbital Energies (a.u.)
 --------------------------------------------------------------

 Alpha MOs
 -- Occupied --
-91.9788 -11.2842 -11.2492 -11.2468 -11.2263 -11.2228 -11.2211  -8.9785
 -6.6595  -6.6590  -6.6584  -1.1600  -1.0559  -0.9970  -0.9426  -0.8826
 -0.7439  -0.7186  -0.6492  -0.5863  -0.5735  -0.5681  -0.5544  -0.5462
 -0.5082  -0.4947  -0.4628  -0.4573  -0.3383  -0.2878

          Ground-State Mulliken Net Atomic Charges

     Atom                 Charge (a.u.)
  ----------------------------------------
      1 C                     0.058862
      2 C                    -0.305026
      3 C                     0.050394
      4 H                     0.175948
      5 C                    -0.280689
      6 S                     0.003292
      7 C                    -0.273690
      8 H                     0.101323
      9 H                     0.107220
     10 H                     0.107172
     11 C                    -0.382207
     12 H                     0.140387
     13 H                     0.165144
     14 H                     0.138787
     15 H                     0.193081
  ----------------------------------------
  Sum of atomic charges =     0.000000

                    Cartesian Multipole Moments
 -----------------------------------------------------------------
    Charge (ESU x 10^10)
                -0.0000
    Dipole Moment (Debye)
         X      -0.5526      Y      -0.7044      Z       1.3870
       Tot       1.6508
    Quadrupole Moments (Debye-Ang)
        XX     -54.0101     XY       3.0902     YY     -42.0341
        XZ       0.0104     YZ       0.1892     ZZ     -48.5354

 Total job time:  157.68s(wall), 155.39s(cpu)
        *  Thank you very much for using Q-Chem.  Have a nice day.  *
