 Q-Chem 5.4, Q-Chem, Inc., Pleasanton, CA (2021)
 Q-Chem 5.4.0 for Intel X86 EM64T Linux

User input:
--------------------------------------------------------------
$molecule
0 1
C	-0.113898	-0.566007	0.017956
C	0.036102	0.284493	1.117356
C	0.276402	1.647393	0.794656
H	-0.027998	-0.078707	2.154056
C	0.314802	1.864693	-0.594544
S	0.049802	0.362093	-1.468844
C	0.465302	2.718593	1.832556
H	0.391402	2.299393	2.854656
H	-0.299898	3.517893	1.744156
H	1.457802	3.207893	1.744156
C	-0.113898	-2.006707	0.017956
H	-1.049098	-2.006907	-0.522144
H	-0.523498	-2.710507	0.727356
H	0.359702	-2.525607	-0.802244
H	0.479602	2.799393	-1.143644
$end

$rem
JOBTYPE		SP
EXCHANGE	HF
CORRELATION	pRIMP2
BASIS		cc-pvtz
METHOD		rimp2
AUX_BASIS	rimp2-cc-pvtz
SOLVENT_METHOD	PCM
PURECART	11111
SYMMETRY	false
MEM_TOTAL	110000
SCF_CONVERGENCE = 6
THRESH=10
$end

$solvent
dielectric 4.90
$end
--------------------------------------------------------------

   10    -629.4202489027      6.46e-07  Convergence criterion met
 Total energy in the final basis set =     -629.4202489027
        RIMP2         total energy =      -630.5964276291 a.u.
 Total job time:  156.76s(wall), 154.87s(cpu)
        *  Thank you very much for using Q-Chem.  Have a nice day.  *
 Q-Chem 5.4, Q-Chem, Inc., Pleasanton, CA (2021)
 Q-Chem 5.4.0 for Intel X86 EM64T Linux

User input:
--------------------------------------------------------------
$molecule
0 1
C	-0.113898	-0.566007	0.017956
C	0.036102	0.284493	1.117356
C	0.276402	1.647393	0.794656
H	-0.027998	-0.078707	2.154056
C	0.314802	1.864693	-0.594544
S	0.049802	0.362093	-1.468844
C	0.465302	2.718593	1.832556
H	0.391402	2.299393	2.854656
H	-0.299898	3.517893	1.744156
H	1.457802	3.207893	1.744156
C	-0.113898	-2.006707	0.017956
H	-1.049098	-2.006907	-0.522144
H	-0.523498	-2.710507	0.727356
H	0.359702	-2.525607	-0.802244
H	0.479602	2.799393	-1.143644
$end

$rem
JOBTYPE		SP
EXCHANGE	HF
CORRELATION	pRIMP2
BASIS		cc-pvtz
METHOD		rimp2
AUX_BASIS	rimp2-cc-pvtz
SOLVENT_METHOD	PCM
PURECART	11111
SYMMETRY	false
MEM_TOTAL	110000
SCF_CONVERGENCE = 6
THRESH=10
$end

$solvent
dielectric 4.90
$end
--------------------------------------------------------------

             Standard Nuclear Orientation (Angstroms)
    I     Atom           X                Y                Z
 ----------------------------------------------------------------
    1      C      -0.1138980000    -0.5660070000     0.0179560000
    2      C       0.0361020000     0.2844930000     1.1173560000
    3      C       0.2764020000     1.6473930000     0.7946560000
    4      H      -0.0279980000    -0.0787070000     2.1540560000
    5      C       0.3148020000     1.8646930000    -0.5945440000
    6      S       0.0498020000     0.3620930000    -1.4688440000
    7      C       0.4653020000     2.7185930000     1.8325560000
    8      H       0.3914020000     2.2993930000     2.8546560000
    9      H      -0.2998980000     3.5178930000     1.7441560000
   10      H       1.4578020000     3.2078930000     1.7441560000
   11      C      -0.1138980000    -2.0067070000     0.0179560000
   12      H      -1.0490980000    -2.0069070000    -0.5221440000
   13      H      -0.5234980000    -2.7105070000     0.7273560000
   14      H       0.3597020000    -2.5256070000    -0.8022440000
   15      H       0.4796020000     2.7993930000    -1.1436440000
 ----------------------------------------------------------------

   10    -629.4202489027      6.46e-07  Convergence criterion met
 Total energy in the final basis set =     -629.4202489027
        RIMP2         total energy =      -630.5964276291 a.u.

                    Orbital Energies (a.u.)
 --------------------------------------------------------------

 Alpha MOs
 -- Occupied --
-91.9791 -11.2815 -11.2522 -11.2467 -11.2264 -11.2246 -11.2195  -8.9789
 -6.6599  -6.6594  -6.6587  -1.1603  -1.0558  -0.9961  -0.9444  -0.8820
 -0.7454  -0.7182  -0.6486  -0.5886  -0.5747  -0.5668  -0.5527  -0.5470
 -0.5084  -0.4912  -0.4643  -0.4546  -0.3389  -0.2915

          Ground-State Mulliken Net Atomic Charges

     Atom                 Charge (a.u.)
  ----------------------------------------
      1 C                     0.042373
      2 C                    -0.275057
      3 C                     0.037416
      4 H                     0.180158
      5 C                    -0.264888
      6 S                    -0.006142
      7 C                    -0.273815
      8 H                     0.101325
      9 H                     0.107085
     10 H                     0.107123
     11 C                    -0.377691
     12 H                     0.129699
     13 H                     0.162126
     14 H                     0.135860
     15 H                     0.194427
  ----------------------------------------
  Sum of atomic charges =     0.000000

                    Cartesian Multipole Moments
 -----------------------------------------------------------------
    Charge (ESU x 10^10)
                -0.0000
    Dipole Moment (Debye)
         X      -0.3901      Y      -0.4808      Z       1.0754
       Tot       1.2409
    Quadrupole Moments (Debye-Ang)
        XX     -53.8625     XY       2.8961     YY     -42.0870
        XZ      -0.2311     YZ       0.8575     ZZ     -48.6402

 Total job time:  157.78s(wall), 155.94s(cpu)
        *  Thank you very much for using Q-Chem.  Have a nice day.  *
