 Q-Chem 5.4, Q-Chem, Inc., Pleasanton, CA (2021)
 Q-Chem 5.4.0 for Intel X86 EM64T Linux

User input:
--------------------------------------------------------------
$molecule
0 1
C	-0.434633	-0.417597	0.019710
C	0.120467	0.243903	1.119110
C	1.010067	1.304103	0.796410
H	-0.116533	-0.038597	2.155810
C	1.151967	1.473103	-0.592790
S	0.171167	0.304303	-1.467090
C	1.709267	2.137303	1.834310
H	1.435667	1.811303	2.856410
H	1.446267	3.212103	1.745910
H	2.813467	2.064903	1.745910
C	-0.434633	-1.858297	0.019710
H	-0.622033	-1.857997	-1.043890
H	0.372167	-2.562097	-0.122490
H	-1.367333	-2.377197	0.184210
H	1.762067	2.200203	-1.141890
$end

$rem
JOBTYPE		SP
EXCHANGE	HF
CORRELATION	pRIMP2
BASIS		cc-pvtz
METHOD		rimp2
AUX_BASIS	rimp2-cc-pvtz
SOLVENT_METHOD	PCM
PURECART	11111
SYMMETRY	false
MEM_TOTAL	110000
SCF_CONVERGENCE = 6
THRESH=10
$end

$solvent
dielectric 4.90
$end
--------------------------------------------------------------

             Standard Nuclear Orientation (Angstroms)
    I     Atom           X                Y                Z
 ----------------------------------------------------------------
    1      C      -0.4346330000    -0.4175970000     0.0197100000
    2      C       0.1204670000     0.2439030000     1.1191100000
    3      C       1.0100670000     1.3041030000     0.7964100000
    4      H      -0.1165330000    -0.0385970000     2.1558100000
    5      C       1.1519670000     1.4731030000    -0.5927900000
    6      S       0.1711670000     0.3043030000    -1.4670900000
    7      C       1.7092670000     2.1373030000     1.8343100000
    8      H       1.4356670000     1.8113030000     2.8564100000
    9      H       1.4462670000     3.2121030000     1.7459100000
   10      H       2.8134670000     2.0649030000     1.7459100000
   11      C      -0.4346330000    -1.8582970000     0.0197100000
   12      H      -0.6220330000    -1.8579970000    -1.0438900000
   13      H       0.3721670000    -2.5620970000    -0.1224900000
   14      H      -1.3673330000    -2.3771970000     0.1842100000
   15      H       1.7620670000     2.2002030000    -1.1418900000
 ----------------------------------------------------------------

   10    -629.3861182916      7.53e-07  Convergence criterion met
 Total energy in the final basis set =     -629.3861182916
        RIMP2         total energy =      -630.5711438248 a.u.

                    Orbital Energies (a.u.)
 --------------------------------------------------------------

 Alpha MOs
 -- Occupied --
-91.9779 -11.2699 -11.2583 -11.2476 -11.2396 -11.2276 -11.2103  -8.9783
 -6.6592  -6.6585  -6.6580  -1.1658  -1.0548  -0.9946  -0.9453  -0.8804
 -0.7509  -0.7226  -0.6452  -0.5879  -0.5780  -0.5699  -0.5510  -0.5469
 -0.5156  -0.4688  -0.4620  -0.4410  -0.3355  -0.3051

          Ground-State Mulliken Net Atomic Charges

     Atom                 Charge (a.u.)
  ----------------------------------------
      1 C                    -0.035256
      2 C                    -0.207917
      3 C                     0.026353
      4 H                     0.179970
      5 C                    -0.226633
      6 S                     0.003045
      7 C                    -0.270190
      8 H                     0.102019
      9 H                     0.106747
     10 H                     0.105194
     11 C                    -0.354743
     12 H                     0.109553
     13 H                     0.145787
     14 H                     0.119562
     15 H                     0.196506
  ----------------------------------------
  Sum of atomic charges =     0.000000

                    Cartesian Multipole Moments
 -----------------------------------------------------------------
    Charge (ESU x 10^10)
                -0.0000
    Dipole Moment (Debye)
         X       1.2979      Y       0.3519      Z       1.0372
       Tot       1.6983
    Quadrupole Moments (Debye-Ang)
        XX     -50.3484     XY       4.5715     YY     -46.5424
        XZ       0.0255     YZ       1.1220     ZZ     -48.4424

 Total job time:  158.67s(wall), 156.22s(cpu)
        *  Thank you very much for using Q-Chem.  Have a nice day.  *
