 Q-Chem 5.4, Q-Chem, Inc., Pleasanton, CA (2021)
 Q-Chem 5.4.0 for Intel X86 EM64T Linux

User input:
--------------------------------------------------------------
$molecule
0 1
C	-0.334299	-0.485421	0.015309
C	0.097501	0.262479	1.114709
C	0.789501	1.460979	0.792009
H	-0.086899	-0.056921	2.151409
C	0.899801	1.652079	-0.597191
S	0.136901	0.330679	-1.471491
C	1.333401	2.402979	1.829909
H	1.120601	2.034379	2.852009
H	0.887701	3.415779	1.741509
H	2.433401	2.523379	1.741509
C	-0.334299	-1.926121	0.015309
H	-1.397899	-1.925821	-0.172391
H	-0.191999	-2.629921	-0.791391
H	-0.498799	-2.445021	0.948009
H	1.374501	2.474079	-1.146291
$end

$rem
JOBTYPE		SP
EXCHANGE	HF
CORRELATION	pRIMP2
BASIS		cc-pvtz
METHOD		rimp2
AUX_BASIS	rimp2-cc-pvtz
SOLVENT_METHOD	PCM
PURECART	11111
SYMMETRY	false
MEM_TOTAL	110000
SCF_CONVERGENCE = 6
THRESH=10
$end

$solvent
dielectric 4.90
$end
--------------------------------------------------------------

             Standard Nuclear Orientation (Angstroms)
    I     Atom           X                Y                Z
 ----------------------------------------------------------------
    1      C      -0.3342990000    -0.4854210000     0.0153090000
    2      C       0.0975010000     0.2624790000     1.1147090000
    3      C       0.7895010000     1.4609790000     0.7920090000
    4      H      -0.0868990000    -0.0569210000     2.1514090000
    5      C       0.8998010000     1.6520790000    -0.5971910000
    6      S       0.1369010000     0.3306790000    -1.4714910000
    7      C       1.3334010000     2.4029790000     1.8299090000
    8      H       1.1206010000     2.0343790000     2.8520090000
    9      H       0.8877010000     3.4157790000     1.7415090000
   10      H       2.4334010000     2.5233790000     1.7415090000
   11      C      -0.3342990000    -1.9261210000     0.0153090000
   12      H      -1.3978990000    -1.9258210000    -0.1723910000
   13      H      -0.1919990000    -2.6299210000    -0.7913910000
   14      H      -0.4987990000    -2.4450210000     0.9480090000
   15      H       1.3745010000     2.4740790000    -1.1462910000
 ----------------------------------------------------------------

   10    -629.3995292132      5.55e-07  Convergence criterion met
 Total energy in the final basis set =     -629.3995292132
        RIMP2         total energy =      -630.5809906684 a.u.

                    Orbital Energies (a.u.)
 --------------------------------------------------------------

 Alpha MOs
 -- Occupied --
-91.9764 -11.2752 -11.2559 -11.2473 -11.2296 -11.2268 -11.2155  -8.9765
 -6.6575  -6.6569  -6.6563  -1.1617  -1.0546  -0.9965  -0.9421  -0.8826
 -0.7451  -0.7205  -0.6446  -0.5869  -0.5740  -0.5722  -0.5511  -0.5450
 -0.5117  -0.4920  -0.4566  -0.4514  -0.3376  -0.2871

          Ground-State Mulliken Net Atomic Charges

     Atom                 Charge (a.u.)
  ----------------------------------------
      1 C                     0.012878
      2 C                    -0.266617
      3 C                     0.045221
      4 H                     0.180363
      5 C                    -0.262280
      6 S                    -0.000543
      7 C                    -0.270567
      8 H                     0.101367
      9 H                     0.107025
     10 H                     0.106317
     11 C                    -0.376718
     12 H                     0.131125
     13 H                     0.163010
     14 H                     0.135826
     15 H                     0.193595
  ----------------------------------------
  Sum of atomic charges =     0.000000

                    Cartesian Multipole Moments
 -----------------------------------------------------------------
    Charge (ESU x 10^10)
                -0.0000
    Dipole Moment (Debye)
         X       0.0425      Y      -0.3838      Z       1.3844
       Tot       1.4373
    Quadrupole Moments (Debye-Ang)
        XX     -51.9647     XY       5.2463     YY     -44.4566
        XZ      -0.0048     YZ       0.5753     ZZ     -48.3657

 Total job time:  158.41s(wall), 154.71s(cpu)
        *  Thank you very much for using Q-Chem.  Have a nice day.  *
