 Q-Chem 5.4, Q-Chem, Inc., Pleasanton, CA (2021)
 Q-Chem 5.4.0 for Intel X86 EM64T Linux

User input:
--------------------------------------------------------------
$molecule
0 1
C	-0.590148	-0.237129	0.019118
C	0.157752	0.194671	1.118518
C	1.356252	0.886571	0.795818
H	-0.161648	0.010271	2.155218
C	1.547352	0.996871	-0.593382
S	0.226052	0.234071	-1.467682
C	2.298352	1.430471	1.833718
H	1.929652	1.217571	2.855818
H	2.418752	2.530371	1.745318
H	3.311152	0.984671	1.745318
C	-0.590148	-1.677829	0.019118
H	0.104152	-1.677529	-0.808182
H	0.037352	-2.381629	0.545718
H	-1.315748	-2.196729	-0.589682
H	2.369452	1.471471	-1.142482
$end

$rem
JOBTYPE		SP
EXCHANGE	HF
CORRELATION	pRIMP2
BASIS		cc-pvtz
METHOD		rimp2
AUX_BASIS	rimp2-cc-pvtz
SOLVENT_METHOD	PCM
PURECART	11111
SYMMETRY	false
MEM_TOTAL	110000
SCF_CONVERGENCE = 6
THRESH=10
$end

$solvent
dielectric 4.90
$end
--------------------------------------------------------------

             Standard Nuclear Orientation (Angstroms)
    I     Atom           X                Y                Z
 ----------------------------------------------------------------
    1      C      -0.5901480000    -0.2371290000     0.0191180000
    2      C       0.1577520000     0.1946710000     1.1185180000
    3      C       1.3562520000     0.8865710000     0.7958180000
    4      H      -0.1616480000     0.0102710000     2.1552180000
    5      C       1.5473520000     0.9968710000    -0.5933820000
    6      S       0.2260520000     0.2340710000    -1.4676820000
    7      C       2.2983520000     1.4304710000     1.8337180000
    8      H       1.9296520000     1.2175710000     2.8558180000
    9      H       2.4187520000     2.5303710000     1.7453180000
   10      H       3.3111520000     0.9846710000     1.7453180000
   11      C      -0.5901480000    -1.6778290000     0.0191180000
   12      H       0.1041520000    -1.6775290000    -0.8081820000
   13      H       0.0373520000    -2.3816290000     0.5457180000
   14      H      -1.3157480000    -2.1967290000    -0.5896820000
   15      H       2.3694520000     1.4714710000    -1.1424820000
 ----------------------------------------------------------------

   10    -629.3348775428      7.71e-07  Convergence criterion met
 Total energy in the final basis set =     -629.3348775428
        RIMP2         total energy =      -630.5264562229 a.u.

                    Orbital Energies (a.u.)
 --------------------------------------------------------------

 Alpha MOs
 -- Occupied --
-91.9690 -11.2825 -11.2543 -11.2490 -11.2480 -11.2292 -11.2042  -8.9713
 -6.6520  -6.6511  -6.6509  -1.1779  -1.0597  -0.9957  -0.9434  -0.8769
 -0.7568  -0.7292  -0.6455  -0.5876  -0.5845  -0.5663  -0.5541  -0.5466
 -0.5182  -0.4786  -0.4623  -0.4272  -0.3356  -0.2921

          Ground-State Mulliken Net Atomic Charges

     Atom                 Charge (a.u.)
  ----------------------------------------
      1 C                    -0.089434
      2 C                    -0.126310
      3 C                    -0.023554
      4 H                     0.186868
      5 C                    -0.184833
      6 S                    -0.004301
      7 C                    -0.268242
      8 H                     0.102066
      9 H                     0.107785
     10 H                     0.105075
     11 C                    -0.384214
     12 H                     0.135484
     13 H                     0.142291
     14 H                     0.102964
     15 H                     0.198357
  ----------------------------------------
  Sum of atomic charges =     0.000000

                    Cartesian Multipole Moments
 -----------------------------------------------------------------
    Charge (ESU x 10^10)
                -0.0000
    Dipole Moment (Debye)
         X       2.8673      Y       0.0860      Z       1.3585
       Tot       3.1740
    Quadrupole Moments (Debye-Ang)
        XX     -48.4931     XY       3.2897     YY     -50.3432
        XZ       0.1167     YZ       1.0852     ZZ     -47.8096

 Total job time:  165.68s(wall), 164.29s(cpu)
        *  Thank you very much for using Q-Chem.  Have a nice day.  *
