 Q-Chem 5.4, Q-Chem, Inc., Pleasanton, CA (2021)
 Q-Chem 5.4.0 for Intel X86 EM64T Linux

User input:
--------------------------------------------------------------
$molecule
0 1
C	-0.589669	-0.237129	0.010669
C	0.158231	0.194671	1.110069
C	1.356731	0.886571	0.787369
H	-0.161169	0.010271	2.146769
C	1.547831	0.996871	-0.601831
S	0.226531	0.234071	-1.476131
C	2.298831	1.430471	1.825269
H	1.930131	1.217571	2.847369
H	2.419231	2.530371	1.736869
H	3.311631	0.984671	1.736869
C	-0.589669	-1.677829	0.010669
H	-0.220369	-1.677529	1.025569
H	-1.359469	-2.381629	0.290769
H	0.300331	-2.196729	-0.313231
H	2.369931	1.471471	-1.150931
$end

$rem
JOBTYPE		SP
EXCHANGE	HF
CORRELATION	pRIMP2
BASIS		cc-pvtz
METHOD		rimp2
AUX_BASIS	rimp2-cc-pvtz
SOLVENT_METHOD	PCM
PURECART	11111
SYMMETRY	false
MEM_TOTAL	110000
SCF_CONVERGENCE = 6
THRESH=10
$end

$solvent
dielectric 4.90
$end
--------------------------------------------------------------

             Standard Nuclear Orientation (Angstroms)
    I     Atom           X                Y                Z
 ----------------------------------------------------------------
    1      C      -0.5896690000    -0.2371290000     0.0106690000
    2      C       0.1582310000     0.1946710000     1.1100690000
    3      C       1.3567310000     0.8865710000     0.7873690000
    4      H      -0.1611690000     0.0102710000     2.1467690000
    5      C       1.5478310000     0.9968710000    -0.6018310000
    6      S       0.2265310000     0.2340710000    -1.4761310000
    7      C       2.2988310000     1.4304710000     1.8252690000
    8      H       1.9301310000     1.2175710000     2.8473690000
    9      H       2.4192310000     2.5303710000     1.7368690000
   10      H       3.3116310000     0.9846710000     1.7368690000
   11      C      -0.5896690000    -1.6778290000     0.0106690000
   12      H      -0.2203690000    -1.6775290000     1.0255690000
   13      H      -1.3594690000    -2.3816290000     0.2907690000
   14      H       0.3003310000    -2.1967290000    -0.3132310000
   15      H       2.3699310000     1.4714710000    -1.1509310000
 ----------------------------------------------------------------

   11    -629.3395299128      5.70e-07  Convergence criterion met
 Total energy in the final basis set =     -629.3395299128
        RIMP2         total energy =      -630.5324610567 a.u.

                    Orbital Energies (a.u.)
 --------------------------------------------------------------

 Alpha MOs
 -- Occupied --
-91.9748 -11.2825 -11.2535 -11.2486 -11.2453 -11.2294 -11.2053  -8.9755
 -6.6562  -6.6554  -6.6552  -1.1770  -1.0576  -1.0027  -0.9328  -0.8818
 -0.7489  -0.7362  -0.6431  -0.5951  -0.5837  -0.5674  -0.5530  -0.5443
 -0.5178  -0.4728  -0.4534  -0.4375  -0.3267  -0.3013

          Ground-State Mulliken Net Atomic Charges

     Atom                 Charge (a.u.)
  ----------------------------------------
      1 C                    -0.101911
      2 C                    -0.113091
      3 C                    -0.028081
      4 H                     0.183332
      5 C                    -0.186795
      6 S                     0.015964
      7 C                    -0.267787
      8 H                     0.101791
      9 H                     0.106926
     10 H                     0.104084
     11 C                    -0.362602
     12 H                     0.115547
     13 H                     0.115413
     14 H                     0.119119
     15 H                     0.198091
  ----------------------------------------
  Sum of atomic charges =     0.000000

                    Cartesian Multipole Moments
 -----------------------------------------------------------------
    Charge (ESU x 10^10)
                -0.0000
    Dipole Moment (Debye)
         X       2.6768      Y       0.1635      Z       2.2579
       Tot       3.5057
    Quadrupole Moments (Debye-Ang)
        XX     -48.1879     XY       3.8731     YY     -50.3842
        XZ      -0.8441     YZ      -0.8864     ZZ     -47.8185

 Total job time:  179.66s(wall), 178.61s(cpu)
        *  Thank you very much for using Q-Chem.  Have a nice day.  *
