 Q-Chem 5.4, Q-Chem, Inc., Pleasanton, CA (2021)
 Q-Chem 5.4.0 for Intel X86 EM64T Linux

User input:
--------------------------------------------------------------
$molecule
0 1
C	-0.170696	-0.553189	0.014756
C	0.052804	0.281011	1.114156
C	0.411004	1.617711	0.791456
H	-0.042596	-0.075289	2.150856
C	0.468204	1.830811	-0.597744
S	0.073204	0.357111	-1.472044
C	0.692604	2.668411	1.829356
H	0.582404	2.257311	2.851456
H	0.000004	3.531411	1.740956
H	1.723904	3.069411	1.740956
C	-0.170696	-1.993889	0.014756
H	-1.234296	-1.994089	0.202156
H	-0.028496	-2.697689	0.821556
H	-0.335196	-2.512789	-0.917944
H	0.713904	2.747711	-1.146844
$end

$rem
JOBTYPE		SP
EXCHANGE	HF
CORRELATION	pRIMP2
BASIS		cc-pvtz
METHOD		rimp2
AUX_BASIS	rimp2-cc-pvtz
SOLVENT_METHOD	PCM
PURECART	11111
SYMMETRY	false
MEM_TOTAL	110000
SCF_CONVERGENCE = 6
THRESH=10
$end

$solvent
dielectric 4.90
$end
--------------------------------------------------------------

             Standard Nuclear Orientation (Angstroms)
    I     Atom           X                Y                Z
 ----------------------------------------------------------------
    1      C      -0.1706960000    -0.5531890000     0.0147560000
    2      C       0.0528040000     0.2810110000     1.1141560000
    3      C       0.4110040000     1.6177110000     0.7914560000
    4      H      -0.0425960000    -0.0752890000     2.1508560000
    5      C       0.4682040000     1.8308110000    -0.5977440000
    6      S       0.0732040000     0.3571110000    -1.4720440000
    7      C       0.6926040000     2.6684110000     1.8293560000
    8      H       0.5824040000     2.2573110000     2.8514560000
    9      H       0.0000040000     3.5314110000     1.7409560000
   10      H       1.7239040000     3.0694110000     1.7409560000
   11      C      -0.1706960000    -1.9938890000     0.0147560000
   12      H      -1.2342960000    -1.9940890000     0.2021560000
   13      H      -0.0284960000    -2.6976890000     0.8215560000
   14      H      -0.3351960000    -2.5127890000    -0.9179440000
   15      H       0.7139040000     2.7477110000    -1.1468440000
 ----------------------------------------------------------------

   10    -629.4170765545      6.63e-07  Convergence criterion met
 Total energy in the final basis set =     -629.4170765545
        RIMP2         total energy =      -630.5943250733 a.u.

                    Orbital Energies (a.u.)
 --------------------------------------------------------------

 Alpha MOs
 -- Occupied --
-91.9782 -11.2825 -11.2503 -11.2470 -11.2264 -11.2244 -11.2198  -8.9780
 -6.6590  -6.6584  -6.6578  -1.1602  -1.0555  -0.9972  -0.9421  -0.8828
 -0.7436  -0.7193  -0.6489  -0.5858  -0.5731  -0.5678  -0.5559  -0.5453
 -0.5091  -0.4945  -0.4611  -0.4557  -0.3379  -0.2880

          Ground-State Mulliken Net Atomic Charges

     Atom                 Charge (a.u.)
  ----------------------------------------
      1 C                     0.055967
      2 C                    -0.308961
      3 C                     0.053570
      4 H                     0.174984
      5 C                    -0.277772
      6 S                     0.005629
      7 C                    -0.273070
      8 H                     0.101357
      9 H                     0.107158
     10 H                     0.107134
     11 C                    -0.379341
     12 H                     0.139286
     13 H                     0.163920
     14 H                     0.137811
     15 H                     0.192329
  ----------------------------------------
  Sum of atomic charges =     0.000000

                    Cartesian Multipole Moments
 -----------------------------------------------------------------
    Charge (ESU x 10^10)
                -0.0000
    Dipole Moment (Debye)
         X      -0.4290      Y      -0.6322      Z       1.5309
       Tot       1.7110
    Quadrupole Moments (Debye-Ang)
        XX     -53.6057     XY       3.7440     YY     -42.4990
        XZ       0.1328     YZ      -0.0759     ZZ     -48.5033

 Total job time:  155.48s(wall), 154.56s(cpu)
        *  Thank you very much for using Q-Chem.  Have a nice day.  *
