 Q-Chem 5.4, Q-Chem, Inc., Pleasanton, CA (2021)
 Q-Chem 5.4.0 for Intel X86 EM64T Linux

User input:
--------------------------------------------------------------
$molecule
0 1
C	-0.588045	-0.237127	0.019884
C	0.159855	0.194673	1.119284
C	1.358355	0.886573	0.796584
H	-0.159545	0.010273	2.155984
C	1.549455	0.996873	-0.592616
S	0.228155	0.234073	-1.466916
C	2.300455	1.430473	1.834484
H	1.931755	1.217573	2.856584
H	2.420855	2.530373	1.746084
H	3.313255	0.984673	1.746084
C	-0.588045	-1.677827	0.019884
H	-0.587945	-1.678027	-1.060116
H	-1.407245	-2.381627	0.019784
H	0.359055	-2.196727	0.019884
H	2.371555	1.471473	-1.141716
$end

$rem
JOBTYPE		SP
EXCHANGE	HF
CORRELATION	pRIMP2
BASIS		cc-pvtz
METHOD		rimp2
AUX_BASIS	rimp2-cc-pvtz
SOLVENT_METHOD	PCM
PURECART	11111
SYMMETRY	false
MEM_TOTAL	110000
SCF_CONVERGENCE = 6
THRESH=10
$end

$solvent
dielectric 4.90
$end
--------------------------------------------------------------

             Standard Nuclear Orientation (Angstroms)
    I     Atom           X                Y                Z
 ----------------------------------------------------------------
    1      C      -0.5880450000    -0.2371270000     0.0198840000
    2      C       0.1598550000     0.1946730000     1.1192840000
    3      C       1.3583550000     0.8865730000     0.7965840000
    4      H      -0.1595450000     0.0102730000     2.1559840000
    5      C       1.5494550000     0.9968730000    -0.5926160000
    6      S       0.2281550000     0.2340730000    -1.4669160000
    7      C       2.3004550000     1.4304730000     1.8344840000
    8      H       1.9317550000     1.2175730000     2.8565840000
    9      H       2.4208550000     2.5303730000     1.7460840000
   10      H       3.3132550000     0.9846730000     1.7460840000
   11      C      -0.5880450000    -1.6778270000     0.0198840000
   12      H      -0.5879450000    -1.6780270000    -1.0601160000
   13      H      -1.4072450000    -2.3816270000     0.0197840000
   14      H       0.3590550000    -2.1967270000     0.0198840000
   15      H       2.3715550000     1.4714730000    -1.1417160000
 ----------------------------------------------------------------

   11    -629.3429531068      4.04e-07  Convergence criterion met
 Total energy in the final basis set =     -629.3429531068
        RIMP2         total energy =      -630.5338885021 a.u.

                    Orbital Energies (a.u.)
 --------------------------------------------------------------

 Alpha MOs
 -- Occupied --
-91.9743 -11.2843 -11.2531 -11.2475 -11.2423 -11.2286 -11.2066  -8.9757
 -6.6565  -6.6555  -6.6553  -1.1757  -1.0585  -0.9956  -0.9441  -0.8773
 -0.7569  -0.7283  -0.6443  -0.5938  -0.5809  -0.5661  -0.5515  -0.5473
 -0.5176  -0.4662  -0.4561  -0.4370  -0.3277  -0.3072

          Ground-State Mulliken Net Atomic Charges

     Atom                 Charge (a.u.)
  ----------------------------------------
      1 C                    -0.109190
      2 C                    -0.108963
      3 C                    -0.018995
      4 H                     0.183614
      5 C                    -0.183776
      6 S                     0.008856
      7 C                    -0.268651
      8 H                     0.102239
      9 H                     0.106692
     10 H                     0.103515
     11 C                    -0.363924
     12 H                     0.117057
     13 H                     0.123259
     14 H                     0.109121
     15 H                     0.199148
  ----------------------------------------
  Sum of atomic charges =     0.000000

                    Cartesian Multipole Moments
 -----------------------------------------------------------------
    Charge (ESU x 10^10)
                -0.0000
    Dipole Moment (Debye)
         X       2.5006      Y       0.2407      Z       1.1343
       Tot       2.7563
    Quadrupole Moments (Debye-Ang)
        XX     -47.9294     XY       4.4300     YY     -50.2204
        XZ      -0.0710     YZ       1.0955     ZZ     -47.8078

 Total job time:  178.09s(wall), 176.49s(cpu)
        *  Thank you very much for using Q-Chem.  Have a nice day.  *
