 Q-Chem 5.4, Q-Chem, Inc., Pleasanton, CA (2021)
 Q-Chem 5.4.0 for Intel X86 EM64T Linux

User input:
--------------------------------------------------------------
$molecule
0 1
C	-0.587193	-0.237129	0.010154
C	0.160707	0.194671	1.109554
C	1.359207	0.886571	0.786854
H	-0.158693	0.010271	2.146254
C	1.550307	0.996871	-0.602346
S	0.229007	0.234071	-1.476646
C	2.301307	1.430471	1.824754
H	1.932607	1.217571	2.846854
H	2.421707	2.530371	1.736354
H	3.314107	0.984671	1.736354
C	-0.587193	-1.677829	0.010154
H	-0.774893	-1.677529	1.073754
H	-1.393893	-2.381629	-0.132146
H	0.345507	-2.196729	0.174654
H	2.372407	1.471471	-1.151446
$end

$rem
JOBTYPE		SP
EXCHANGE	HF
CORRELATION	pRIMP2
BASIS		cc-pvtz
METHOD		rimp2
AUX_BASIS	rimp2-cc-pvtz
SOLVENT_METHOD	PCM
PURECART	11111
SYMMETRY	false
MEM_TOTAL	110000
SCF_CONVERGENCE = 6
THRESH=10
$end

$solvent
dielectric 4.90
$end
--------------------------------------------------------------

             Standard Nuclear Orientation (Angstroms)
    I     Atom           X                Y                Z
 ----------------------------------------------------------------
    1      C      -0.5871930000    -0.2371290000     0.0101540000
    2      C       0.1607070000     0.1946710000     1.1095540000
    3      C       1.3592070000     0.8865710000     0.7868540000
    4      H      -0.1586930000     0.0102710000     2.1462540000
    5      C       1.5503070000     0.9968710000    -0.6023460000
    6      S       0.2290070000     0.2340710000    -1.4766460000
    7      C       2.3013070000     1.4304710000     1.8247540000
    8      H       1.9326070000     1.2175710000     2.8468540000
    9      H       2.4217070000     2.5303710000     1.7363540000
   10      H       3.3141070000     0.9846710000     1.7363540000
   11      C      -0.5871930000    -1.6778290000     0.0101540000
   12      H      -0.7748930000    -1.6775290000     1.0737540000
   13      H      -1.3938930000    -2.3816290000    -0.1321460000
   14      H       0.3455070000    -2.1967290000     0.1746540000
   15      H       2.3724070000     1.4714710000    -1.1514460000
 ----------------------------------------------------------------

   11    -629.3524332942      4.12e-07  Convergence criterion met
 Total energy in the final basis set =     -629.3524332942
        RIMP2         total energy =      -630.5434988145 a.u.

                    Orbital Energies (a.u.)
 --------------------------------------------------------------

 Alpha MOs
 -- Occupied --
-91.9723 -11.2838 -11.2548 -11.2498 -11.2449 -11.2298 -11.2083  -8.9734
 -6.6541  -6.6533  -6.6530  -1.1754  -1.0571  -1.0023  -0.9333  -0.8834
 -0.7482  -0.7352  -0.6433  -0.5947  -0.5850  -0.5666  -0.5536  -0.5435
 -0.5188  -0.4739  -0.4596  -0.4204  -0.3329  -0.3078

          Ground-State Mulliken Net Atomic Charges

     Atom                 Charge (a.u.)
  ----------------------------------------
      1 C                    -0.095680
      2 C                    -0.129917
      3 C                    -0.016538
      4 H                     0.181850
      5 C                    -0.182027
      6 S                     0.011732
      7 C                    -0.267094
      8 H                     0.102100
      9 H                     0.106899
     10 H                     0.105043
     11 C                    -0.351639
     12 H                     0.098502
     13 H                     0.121376
     14 H                     0.117679
     15 H                     0.197712
  ----------------------------------------
  Sum of atomic charges =     0.000000

                    Cartesian Multipole Moments
 -----------------------------------------------------------------
    Charge (ESU x 10^10)
                -0.0000
    Dipole Moment (Debye)
         X       2.4151      Y       0.2429      Z       2.2954
       Tot       3.3408
    Quadrupole Moments (Debye-Ang)
        XX     -47.6090     XY       4.6391     YY     -50.1379
        XZ      -0.4770     YZ      -0.8464     ZZ     -48.1109

 Total job time:  177.50s(wall), 176.75s(cpu)
        *  Thank you very much for using Q-Chem.  Have a nice day.  *
