 Q-Chem 5.4, Q-Chem, Inc., Pleasanton, CA (2021)
 Q-Chem 5.4.0 for Intel X86 EM64T Linux

User input:
--------------------------------------------------------------
$molecule
0 1
C	-0.236890	-0.535395	0.015308
C	0.058510	0.276105	1.114708
C	0.531810	1.576505	0.792008
H	-0.067590	-0.070395	2.151408
C	0.607310	1.783905	-0.597192
S	0.085410	0.350205	-1.471492
C	0.903910	2.598705	1.829908
H	0.758310	2.198705	2.852008
H	0.289110	3.518705	1.741508
H	1.966310	2.908305	1.741508
C	-0.236890	-1.976095	0.015308
H	0.826710	-1.976295	-0.172092
H	-0.379090	-2.679895	-0.791492
H	-0.072390	-2.494995	0.948008
H	0.932010	2.675905	-1.146292
$end

$rem
JOBTYPE		SP
EXCHANGE	HF
CORRELATION	pRIMP2
BASIS		cc-pvtz
METHOD		rimp2
AUX_BASIS	rimp2-cc-pvtz
SOLVENT_METHOD	PCM
PURECART	11111
SYMMETRY	false
MEM_TOTAL	110000
SCF_CONVERGENCE = 6
THRESH=10
$end

$solvent
dielectric 4.90
$end
--------------------------------------------------------------

   10    -629.4195656909      7.03e-07  Convergence criterion met
 Total energy in the final basis set =     -629.4195656909
        RIMP2         total energy =      -630.5959862217 a.u.
 Total job time:  160.16s(wall), 158.70s(cpu)
        *  Thank you very much for using Q-Chem.  Have a nice day.  *
 Q-Chem 5.4, Q-Chem, Inc., Pleasanton, CA (2021)
 Q-Chem 5.4.0 for Intel X86 EM64T Linux

User input:
--------------------------------------------------------------
$molecule
0 1
C	-0.236890	-0.535395	0.015308
C	0.058510	0.276105	1.114708
C	0.531810	1.576505	0.792008
H	-0.067590	-0.070395	2.151408
C	0.607310	1.783905	-0.597192
S	0.085410	0.350205	-1.471492
C	0.903910	2.598705	1.829908
H	0.758310	2.198705	2.852008
H	0.289110	3.518705	1.741508
H	1.966310	2.908305	1.741508
C	-0.236890	-1.976095	0.015308
H	0.826710	-1.976295	-0.172092
H	-0.379090	-2.679895	-0.791492
H	-0.072390	-2.494995	0.948008
H	0.932010	2.675905	-1.146292
$end

$rem
JOBTYPE		SP
EXCHANGE	HF
CORRELATION	pRIMP2
BASIS		cc-pvtz
METHOD		rimp2
AUX_BASIS	rimp2-cc-pvtz
SOLVENT_METHOD	PCM
PURECART	11111
SYMMETRY	false
MEM_TOTAL	110000
SCF_CONVERGENCE = 6
THRESH=10
$end

$solvent
dielectric 4.90
$end
--------------------------------------------------------------

             Standard Nuclear Orientation (Angstroms)
    I     Atom           X                Y                Z
 ----------------------------------------------------------------
    1      C      -0.2368900000    -0.5353950000     0.0153080000
    2      C       0.0585100000     0.2761050000     1.1147080000
    3      C       0.5318100000     1.5765050000     0.7920080000
    4      H      -0.0675900000    -0.0703950000     2.1514080000
    5      C       0.6073100000     1.7839050000    -0.5971920000
    6      S       0.0854100000     0.3502050000    -1.4714920000
    7      C       0.9039100000     2.5987050000     1.8299080000
    8      H       0.7583100000     2.1987050000     2.8520080000
    9      H       0.2891100000     3.5187050000     1.7415080000
   10      H       1.9663100000     2.9083050000     1.7415080000
   11      C      -0.2368900000    -1.9760950000     0.0153080000
   12      H       0.8267100000    -1.9762950000    -0.1720920000
   13      H      -0.3790900000    -2.6798950000    -0.7914920000
   14      H      -0.0723900000    -2.4949950000     0.9480080000
   15      H       0.9320100000     2.6759050000    -1.1462920000
 ----------------------------------------------------------------

   10    -629.4195656909      7.03e-07  Convergence criterion met
 Total energy in the final basis set =     -629.4195656909
        RIMP2         total energy =      -630.5959862217 a.u.

                    Orbital Energies (a.u.)
 --------------------------------------------------------------

 Alpha MOs
 -- Occupied --
-91.9767 -11.2846 -11.2510 -11.2474 -11.2267 -11.2249 -11.2225  -8.9768
 -6.6578  -6.6572  -6.6566  -1.1623  -1.0568  -0.9968  -0.9417  -0.8821
 -0.7449  -0.7194  -0.6472  -0.5893  -0.5787  -0.5679  -0.5513  -0.5467
 -0.5071  -0.4943  -0.4649  -0.4557  -0.3393  -0.2886

          Ground-State Mulliken Net Atomic Charges

     Atom                 Charge (a.u.)
  ----------------------------------------
      1 C                     0.064270
      2 C                    -0.326724
      3 C                     0.062481
      4 H                     0.176689
      5 C                    -0.278861
      6 S                    -0.003529
      7 C                    -0.271447
      8 H                     0.101452
      9 H                     0.107587
     10 H                     0.107147
     11 C                    -0.373588
     12 H                     0.147641
     13 H                     0.157115
     14 H                     0.137366
     15 H                     0.192399
  ----------------------------------------
  Sum of atomic charges =     0.000000

                    Cartesian Multipole Moments
 -----------------------------------------------------------------
    Charge (ESU x 10^10)
                -0.0000
    Dipole Moment (Debye)
         X       1.1117      Y      -0.6965      Z       1.3334
       Tot       1.8706
    Quadrupole Moments (Debye-Ang)
        XX     -53.7467     XY       1.4771     YY     -42.8452
        XZ       0.2590     YZ       0.6654     ZZ     -48.6131

 Total job time:  157.09s(wall), 155.62s(cpu)
        *  Thank you very much for using Q-Chem.  Have a nice day.  *
