 Q-Chem 5.4, Q-Chem, Inc., Pleasanton, CA (2021)
 Q-Chem 5.4.0 for Intel X86 EM64T Linux

User input:
--------------------------------------------------------------
$molecule
0 1
C	-0.438719	-0.417594	0.010945
C	0.116381	0.243906	1.110345
C	1.005981	1.304106	0.787645
H	-0.120619	-0.038594	2.147045
C	1.147881	1.473106	-0.601555
S	0.167081	0.304306	-1.475855
C	1.705181	2.137306	1.825545
H	1.431581	1.811306	2.847645
H	1.442181	3.212106	1.737145
H	2.809381	2.064906	1.737145
C	-0.438719	-1.858294	0.010945
H	0.255381	-1.858494	0.838345
H	0.188881	-2.562094	-0.515555
H	-1.164219	-2.377194	0.619745
H	1.757981	2.200206	-1.150655
$end

$rem
JOBTYPE		SP
EXCHANGE	HF
CORRELATION	pRIMP2
BASIS		cc-pvtz
METHOD		rimp2
AUX_BASIS	rimp2-cc-pvtz
SOLVENT_METHOD	PCM
PURECART	11111
SYMMETRY	false
MEM_TOTAL	110000
SCF_CONVERGENCE = 6
THRESH=10
$end

$solvent
dielectric 4.90
$end
--------------------------------------------------------------

             Standard Nuclear Orientation (Angstroms)
    I     Atom           X                Y                Z
 ----------------------------------------------------------------
    1      C      -0.4387190000    -0.4175940000     0.0109450000
    2      C       0.1163810000     0.2439060000     1.1103450000
    3      C       1.0059810000     1.3041060000     0.7876450000
    4      H      -0.1206190000    -0.0385940000     2.1470450000
    5      C       1.1478810000     1.4731060000    -0.6015550000
    6      S       0.1670810000     0.3043060000    -1.4758550000
    7      C       1.7051810000     2.1373060000     1.8255450000
    8      H       1.4315810000     1.8113060000     2.8476450000
    9      H       1.4421810000     3.2121060000     1.7371450000
   10      H       2.8093810000     2.0649060000     1.7371450000
   11      C      -0.4387190000    -1.8582940000     0.0109450000
   12      H       0.2553810000    -1.8584940000     0.8383450000
   13      H       0.1888810000    -2.5620940000    -0.5155550000
   14      H      -1.1642190000    -2.3771940000     0.6197450000
   15      H       1.7579810000     2.2002060000    -1.1506550000
 ----------------------------------------------------------------

   10    -629.3836023223      6.24e-07  Convergence criterion met
 Total energy in the final basis set =     -629.3836023223
        RIMP2         total energy =      -630.5697978291 a.u.

                    Orbital Energies (a.u.)
 --------------------------------------------------------------

 Alpha MOs
 -- Occupied --
-91.9778 -11.2686 -11.2623 -11.2483 -11.2351 -11.2279 -11.2110  -8.9778
 -6.6587  -6.6580  -6.6576  -1.1667  -1.0550  -0.9994  -0.9361  -0.8828
 -0.7440  -0.7262  -0.6451  -0.5888  -0.5769  -0.5737  -0.5549  -0.5434
 -0.5140  -0.4735  -0.4629  -0.4479  -0.3339  -0.2934

          Ground-State Mulliken Net Atomic Charges

     Atom                 Charge (a.u.)
  ----------------------------------------
      1 C                    -0.010084
      2 C                    -0.221428
      3 C                     0.017045
      4 H                     0.177400
      5 C                    -0.241617
      6 S                     0.009263
      7 C                    -0.269622
      8 H                     0.101416
      9 H                     0.107257
     10 H                     0.105412
     11 C                    -0.388028
     12 H                     0.141349
     13 H                     0.159027
     14 H                     0.119197
     15 H                     0.193416
  ----------------------------------------
  Sum of atomic charges =     0.000000

                    Cartesian Multipole Moments
 -----------------------------------------------------------------
    Charge (ESU x 10^10)
                -0.0000
    Dipole Moment (Debye)
         X       1.5927      Y      -0.0983      Z       2.0105
       Tot       2.5668
    Quadrupole Moments (Debye-Ang)
        XX     -51.1131     XY       3.3749     YY     -46.5948
        XZ      -0.3782     YZ      -0.7550     ZZ     -48.2866

 Total job time:  160.28s(wall), 158.09s(cpu)
        *  Thank you very much for using Q-Chem.  Have a nice day.  *
