 Q-Chem 5.4, Q-Chem, Inc., Pleasanton, CA (2021)
 Q-Chem 5.4.0 for Intel X86 EM64T Linux

User input:
--------------------------------------------------------------
$molecule
0 1
C	-0.338901	-0.485419	0.019910
C	0.092899	0.262481	1.119310
C	0.784899	1.460981	0.796610
H	-0.091501	-0.056919	2.156010
C	0.895199	1.652081	-0.592590
S	0.132299	0.330681	-1.466890
C	1.328799	2.402981	1.834510
H	1.115999	2.034381	2.856610
H	0.883099	3.415781	1.746110
H	2.428799	2.523381	1.746110
C	-0.338901	-1.926119	0.019910
H	-0.526301	-1.926319	-1.043690
H	-1.145701	-2.629919	0.162110
H	0.593799	-2.445019	-0.144590
H	1.369899	2.474081	-1.141690
$end

$rem
JOBTYPE		SP
EXCHANGE	HF
CORRELATION	pRIMP2
BASIS		cc-pvtz
METHOD		rimp2
AUX_BASIS	rimp2-cc-pvtz
SOLVENT_METHOD	PCM
PURECART	11111
SYMMETRY	false
MEM_TOTAL	110000
SCF_CONVERGENCE = 6
THRESH=10
$end

$solvent
dielectric 4.90
$end
--------------------------------------------------------------

   10    -629.4030088705      5.36e-07  Convergence criterion met
 Total energy in the final basis set =     -629.4030088705
        RIMP2         total energy =      -630.5847433187 a.u.
 Total job time:  158.09s(wall), 157.25s(cpu)
        *  Thank you very much for using Q-Chem.  Have a nice day.  *
 Q-Chem 5.4, Q-Chem, Inc., Pleasanton, CA (2021)
 Q-Chem 5.4.0 for Intel X86 EM64T Linux

User input:
--------------------------------------------------------------
$molecule
0 1
C	-0.338901	-0.485419	0.019910
C	0.092899	0.262481	1.119310
C	0.784899	1.460981	0.796610
H	-0.091501	-0.056919	2.156010
C	0.895199	1.652081	-0.592590
S	0.132299	0.330681	-1.466890
C	1.328799	2.402981	1.834510
H	1.115999	2.034381	2.856610
H	0.883099	3.415781	1.746110
H	2.428799	2.523381	1.746110
C	-0.338901	-1.926119	0.019910
H	-0.526301	-1.926319	-1.043690
H	-1.145701	-2.629919	0.162110
H	0.593799	-2.445019	-0.144590
H	1.369899	2.474081	-1.141690
$end

$rem
JOBTYPE		SP
EXCHANGE	HF
CORRELATION	pRIMP2
BASIS		cc-pvtz
METHOD		rimp2
AUX_BASIS	rimp2-cc-pvtz
SOLVENT_METHOD	PCM
PURECART	11111
SYMMETRY	false
MEM_TOTAL	110000
SCF_CONVERGENCE = 6
THRESH=10
$end

$solvent
dielectric 4.90
$end
--------------------------------------------------------------

             Standard Nuclear Orientation (Angstroms)
    I     Atom           X                Y                Z
 ----------------------------------------------------------------
    1      C      -0.3389010000    -0.4854190000     0.0199100000
    2      C       0.0928990000     0.2624810000     1.1193100000
    3      C       0.7848990000     1.4609810000     0.7966100000
    4      H      -0.0915010000    -0.0569190000     2.1560100000
    5      C       0.8951990000     1.6520810000    -0.5925900000
    6      S       0.1322990000     0.3306810000    -1.4668900000
    7      C       1.3287990000     2.4029810000     1.8345100000
    8      H       1.1159990000     2.0343810000     2.8566100000
    9      H       0.8830990000     3.4157810000     1.7461100000
   10      H       2.4287990000     2.5233810000     1.7461100000
   11      C      -0.3389010000    -1.9261190000     0.0199100000
   12      H      -0.5263010000    -1.9263190000    -1.0436900000
   13      H      -1.1457010000    -2.6299190000     0.1621100000
   14      H       0.5937990000    -2.4450190000    -0.1445900000
   15      H       1.3698990000     2.4740810000    -1.1416900000
 ----------------------------------------------------------------

   10    -629.4030088705      5.36e-07  Convergence criterion met
 Total energy in the final basis set =     -629.4030088705
        RIMP2         total energy =      -630.5847433187 a.u.

                    Orbital Energies (a.u.)
 --------------------------------------------------------------

 Alpha MOs
 -- Occupied --
-91.9795 -11.2673 -11.2635 -11.2473 -11.2335 -11.2272 -11.2135  -8.9796
 -6.6605  -6.6599  -6.6593  -1.1635  -1.0551  -0.9947  -0.9457  -0.8808
 -0.7493  -0.7204  -0.6460  -0.5916  -0.5759  -0.5664  -0.5528  -0.5472
 -0.5118  -0.4775  -0.4645  -0.4427  -0.3371  -0.3039

          Ground-State Mulliken Net Atomic Charges

     Atom                 Charge (a.u.)
  ----------------------------------------
      1 C                     0.007713
      2 C                    -0.243200
      3 C                     0.038941
      4 H                     0.178448
      5 C                    -0.245835
      6 S                     0.000040
      7 C                    -0.271251
      8 H                     0.102015
      9 H                     0.106801
     10 H                     0.105947
     11 C                    -0.359326
     12 H                     0.110084
     13 H                     0.144628
     14 H                     0.129371
     15 H                     0.195623
  ----------------------------------------
  Sum of atomic charges =     0.000000

                    Cartesian Multipole Moments
 -----------------------------------------------------------------
    Charge (ESU x 10^10)
                -0.0000
    Dipole Moment (Debye)
         X       0.8329      Y       0.1689      Z       0.9468
       Tot       1.2723
    Quadrupole Moments (Debye-Ang)
        XX     -51.6433     XY       4.2472     YY     -44.7413
        XZ       0.0936     YZ       1.2168     ZZ     -48.6537

 Total job time:  156.88s(wall), 155.60s(cpu)
        *  Thank you very much for using Q-Chem.  Have a nice day.  *
