 Q-Chem 5.4, Q-Chem, Inc., Pleasanton, CA (2021)
 Q-Chem 5.4.0 for Intel X86 EM64T Linux

User input:
--------------------------------------------------------------
$molecule
0 1
C	-0.434112	-0.417594	0.019522
C	0.120988	0.243906	1.118922
C	1.010588	1.304106	0.796222
H	-0.116012	-0.038594	2.155622
C	1.152488	1.473106	-0.592978
S	0.171688	0.304306	-1.467278
C	1.709788	2.137306	1.834122
H	1.436188	1.811306	2.856222
H	1.446788	3.212106	1.745722
H	2.813988	2.064906	1.745722
C	-0.434112	-1.858294	0.019522
H	-0.974012	-1.858494	-0.915878
H	-1.143612	-2.562094	0.429022
H	0.386088	-2.377194	-0.454078
H	1.762588	2.200206	-1.142078
$end

$rem
JOBTYPE		SP
EXCHANGE	HF
CORRELATION	pRIMP2
BASIS		cc-pvtz
METHOD		rimp2
AUX_BASIS	rimp2-cc-pvtz
SOLVENT_METHOD	PCM
PURECART	11111
SYMMETRY	false
MEM_TOTAL	110000
SCF_CONVERGENCE = 6
THRESH=10
$end

$solvent
dielectric 4.90
$end
--------------------------------------------------------------

             Standard Nuclear Orientation (Angstroms)
    I     Atom           X                Y                Z
 ----------------------------------------------------------------
    1      C      -0.4341120000    -0.4175940000     0.0195220000
    2      C       0.1209880000     0.2439060000     1.1189220000
    3      C       1.0105880000     1.3041060000     0.7962220000
    4      H      -0.1160120000    -0.0385940000     2.1556220000
    5      C       1.1524880000     1.4731060000    -0.5929780000
    6      S       0.1716880000     0.3043060000    -1.4672780000
    7      C       1.7097880000     2.1373060000     1.8341220000
    8      H       1.4361880000     1.8113060000     2.8562220000
    9      H       1.4467880000     3.2121060000     1.7457220000
   10      H       2.8139880000     2.0649060000     1.7457220000
   11      C      -0.4341120000    -1.8582940000     0.0195220000
   12      H      -0.9740120000    -1.8584940000    -0.9158780000
   13      H      -1.1436120000    -2.5620940000     0.4290220000
   14      H       0.3860880000    -2.3771940000    -0.4540780000
   15      H       1.7625880000     2.2002060000    -1.1420780000
 ----------------------------------------------------------------

   10    -629.3882955573      5.88e-07  Convergence criterion met
 Total energy in the final basis set =     -629.3882955573
        RIMP2         total energy =      -630.5726556091 a.u.

                    Orbital Energies (a.u.)
 --------------------------------------------------------------

 Alpha MOs
 -- Occupied --
-91.9787 -11.2679 -11.2615 -11.2477 -11.2368 -11.2274 -11.2116  -8.9788
 -6.6597  -6.6591  -6.6586  -1.1654  -1.0548  -0.9948  -0.9448  -0.8808
 -0.7498  -0.7222  -0.6444  -0.5914  -0.5760  -0.5677  -0.5523  -0.5464
 -0.5138  -0.4755  -0.4604  -0.4438  -0.3368  -0.3001

          Ground-State Mulliken Net Atomic Charges

     Atom                 Charge (a.u.)
  ----------------------------------------
      1 C                    -0.034264
      2 C                    -0.201542
      3 C                     0.021128
      4 H                     0.179430
      5 C                    -0.227745
      6 S                     0.004130
      7 C                    -0.270373
      8 H                     0.101850
      9 H                     0.106838
     10 H                     0.105358
     11 C                    -0.366063
     12 H                     0.108852
     13 H                     0.144549
     14 H                     0.131918
     15 H                     0.195935
  ----------------------------------------
  Sum of atomic charges =     0.000000

                    Cartesian Multipole Moments
 -----------------------------------------------------------------
    Charge (ESU x 10^10)
                -0.0000
    Dipole Moment (Debye)
         X       1.0535      Y       0.2071      Z       1.0913
       Tot       1.5309
    Quadrupole Moments (Debye-Ang)
        XX     -50.3124     XY       5.2672     YY     -46.3530
        XZ      -0.1710     YZ       0.8431     ZZ     -48.4477

 Total job time:  157.12s(wall), 155.00s(cpu)
        *  Thank you very much for using Q-Chem.  Have a nice day.  *
