 Q-Chem 5.4, Q-Chem, Inc., Pleasanton, CA (2021)
 Q-Chem 5.4.0 for Intel X86 EM64T Linux

User input:
--------------------------------------------------------------
$molecule
0 1
C	-0.523201	-0.333974	0.011685
C	0.138399	0.221126	1.111085
C	1.198499	1.110626	0.788385
H	-0.144101	-0.015974	2.147785
C	1.367599	1.252426	-0.600815
S	0.198699	0.271726	-1.475115
C	2.031799	1.809826	1.826285
H	1.705699	1.536226	2.848385
H	1.959399	2.914026	1.737885
H	3.106599	1.546726	1.737885
C	-0.523201	-1.774674	0.011685
H	0.170899	-1.774374	0.839085
H	-1.150801	-2.478474	0.538185
H	0.202299	-2.293574	-0.597115
H	2.094699	1.862626	-1.149915
$end

$rem
JOBTYPE		SP
EXCHANGE	HF
CORRELATION	pRIMP2
BASIS		cc-pvtz
METHOD		rimp2
AUX_BASIS	rimp2-cc-pvtz
SOLVENT_METHOD	PCM
PURECART	11111
SYMMETRY	false
MEM_TOTAL	110000
SCF_CONVERGENCE = 6
THRESH=10
$end

$solvent
dielectric 4.90
$end
--------------------------------------------------------------

             Standard Nuclear Orientation (Angstroms)
    I     Atom           X                Y                Z
 ----------------------------------------------------------------
    1      C      -0.5232010000    -0.3339740000     0.0116850000
    2      C       0.1383990000     0.2211260000     1.1110850000
    3      C       1.1984990000     1.1106260000     0.7883850000
    4      H      -0.1441010000    -0.0159740000     2.1477850000
    5      C       1.3675990000     1.2524260000    -0.6008150000
    6      S       0.1986990000     0.2717260000    -1.4751150000
    7      C       2.0317990000     1.8098260000     1.8262850000
    8      H       1.7056990000     1.5362260000     2.8483850000
    9      H       1.9593990000     2.9140260000     1.7378850000
   10      H       3.1065990000     1.5467260000     1.7378850000
   11      C      -0.5232010000    -1.7746740000     0.0116850000
   12      H       0.1708990000    -1.7743740000     0.8390850000
   13      H      -1.1508010000    -2.4784740000     0.5381850000
   14      H       0.2022990000    -2.2935740000    -0.5971150000
   15      H       2.0946990000     1.8626260000    -1.1499150000
 ----------------------------------------------------------------

   11    -629.3622451225      4.58e-07  Convergence criterion met
 Total energy in the final basis set =     -629.3622451225
        RIMP2         total energy =      -630.5524178944 a.u.

                    Orbital Energies (a.u.)
 --------------------------------------------------------------

 Alpha MOs
 -- Occupied --
-91.9779 -11.2699 -11.2602 -11.2484 -11.2404 -11.2284 -11.2080  -8.9780
 -6.6589  -6.6582  -6.6578  -1.1713  -1.0561  -1.0000  -0.9349  -0.8817
 -0.7463  -0.7296  -0.6444  -0.5918  -0.5786  -0.5685  -0.5548  -0.5442
 -0.5140  -0.4745  -0.4586  -0.4490  -0.3312  -0.2927

          Ground-State Mulliken Net Atomic Charges

     Atom                 Charge (a.u.)
  ----------------------------------------
      1 C                    -0.055350
      2 C                    -0.168661
      3 C                    -0.005714
      4 H                     0.179804
      5 C                    -0.221962
      6 S                     0.017287
      7 C                    -0.268574
      8 H                     0.101570
      9 H                     0.107126
     10 H                     0.104472
     11 C                    -0.379316
     12 H                     0.133255
     13 H                     0.126796
     14 H                     0.133568
     15 H                     0.195699
  ----------------------------------------
  Sum of atomic charges =     0.000000

                    Cartesian Multipole Moments
 -----------------------------------------------------------------
    Charge (ESU x 10^10)
                -0.0000
    Dipole Moment (Debye)
         X       2.1048      Y       0.0076      Z       2.0143
       Tot       2.9134
    Quadrupole Moments (Debye-Ang)
        XX     -49.8668     XY       3.7557     YY     -48.5664
        XZ      -0.5832     YZ      -0.8986     ZZ     -47.9320

 Total job time:  176.27s(wall), 174.43s(cpu)
        *  Thank you very much for using Q-Chem.  Have a nice day.  *
