 Q-Chem 5.4, Q-Chem, Inc., Pleasanton, CA (2021)
 Q-Chem 5.4.0 for Intel X86 EM64T Linux

User input:
--------------------------------------------------------------
$molecule
0 1
C	-0.055231	-0.573729	0.012109
C	0.020069	0.286571	1.111509
C	0.140669	1.665271	0.788809
H	-0.012031	-0.080829	2.148209
C	0.159969	1.885071	-0.600391
S	0.026969	0.365071	-1.474691
C	0.235569	2.748871	1.826709
H	0.198469	2.324771	2.848809
H	-0.596431	3.478371	1.738309
H	1.181569	3.322871	1.738309
C	-0.055231	-2.014429	0.012109
H	-0.990631	-2.014129	0.552009
H	-0.464731	-2.718229	-0.697391
H	0.418369	-2.533329	0.832309
H	0.242669	2.830671	-1.149491
$end

$rem
JOBTYPE		SP
EXCHANGE	HF
CORRELATION	pRIMP2
BASIS		cc-pvtz
METHOD		rimp2
AUX_BASIS	rimp2-cc-pvtz
SOLVENT_METHOD	PCM
PURECART	11111
SYMMETRY	false
MEM_TOTAL	110000
SCF_CONVERGENCE = 6
THRESH=10
$end

$solvent
dielectric 4.90
$end
--------------------------------------------------------------

             Standard Nuclear Orientation (Angstroms)
    I     Atom           X                Y                Z
 ----------------------------------------------------------------
    1      C      -0.0552310000    -0.5737290000     0.0121090000
    2      C       0.0200690000     0.2865710000     1.1115090000
    3      C       0.1406690000     1.6652710000     0.7888090000
    4      H      -0.0120310000    -0.0808290000     2.1482090000
    5      C       0.1599690000     1.8850710000    -0.6003910000
    6      S       0.0269690000     0.3650710000    -1.4746910000
    7      C       0.2355690000     2.7488710000     1.8267090000
    8      H       0.1984690000     2.3247710000     2.8488090000
    9      H      -0.5964310000     3.4783710000     1.7383090000
   10      H       1.1815690000     3.3228710000     1.7383090000
   11      C      -0.0552310000    -2.0144290000     0.0121090000
   12      H      -0.9906310000    -2.0141290000     0.5520090000
   13      H      -0.4647310000    -2.7182290000    -0.6973910000
   14      H       0.4183690000    -2.5333290000     0.8323090000
   15      H       0.2426690000     2.8306710000    -1.1494910000
 ----------------------------------------------------------------

   10    -629.4232151279      6.40e-07  Convergence criterion met
 Total energy in the final basis set =     -629.4232151279
        RIMP2         total energy =      -630.5998680676 a.u.

                    Orbital Energies (a.u.)
 --------------------------------------------------------------

 Alpha MOs
 -- Occupied --
-91.9772 -11.2844 -11.2496 -11.2472 -11.2267 -11.2257 -11.2203  -8.9770
 -6.6579  -6.6574  -6.6568  -1.1601  -1.0555  -0.9984  -0.9404  -0.8835
 -0.7425  -0.7199  -0.6480  -0.5905  -0.5737  -0.5701  -0.5569  -0.5439
 -0.5088  -0.4911  -0.4648  -0.4515  -0.3375  -0.2910

          Ground-State Mulliken Net Atomic Charges

     Atom                 Charge (a.u.)
  ----------------------------------------
      1 C                     0.075438
      2 C                    -0.303958
      3 C                     0.046503
      4 H                     0.175722
      5 C                    -0.274719
      6 S                    -0.002096
      7 C                    -0.275498
      8 H                     0.101121
      9 H                     0.107276
     10 H                     0.107427
     11 C                    -0.388964
     12 H                     0.139170
     13 H                     0.162026
     14 H                     0.138931
     15 H                     0.191621
  ----------------------------------------
  Sum of atomic charges =     0.000000

                    Cartesian Multipole Moments
 -----------------------------------------------------------------
    Charge (ESU x 10^10)
                -0.0000
    Dipole Moment (Debye)
         X      -0.5332      Y      -0.6416      Z       1.7882
       Tot       1.9732
    Quadrupole Moments (Debye-Ang)
        XX     -54.0705     XY       2.2143     YY     -41.9589
        XZ       0.2687     YZ      -0.2576     ZZ     -48.6640

 Total job time:  161.37s(wall), 159.71s(cpu)
        *  Thank you very much for using Q-Chem.  Have a nice day.  *
