 Q-Chem 5.4, Q-Chem, Inc., Pleasanton, CA (2021)
 Q-Chem 5.4.0 for Intel X86 EM64T Linux

User input:
--------------------------------------------------------------
$molecule
0 1
C	-0.063232	-0.573727	0.017710
C	0.012068	0.286573	1.117110
C	0.132668	1.665273	0.794410
H	-0.020032	-0.080827	2.153810
C	0.151968	1.885073	-0.594790
S	0.018968	0.365073	-1.469090
C	0.227568	2.748873	1.832310
H	0.190468	2.324773	2.854410
H	-0.604432	3.478373	1.743910
H	1.173568	3.322873	1.743910
C	-0.063232	-2.014427	0.017710
H	0.764168	-2.014627	-0.676390
H	-0.589732	-2.718227	-0.609890
H	0.545568	-2.533327	0.743210
H	0.234668	2.830673	-1.143890
$end

$rem
JOBTYPE		SP
EXCHANGE	HF
CORRELATION	pRIMP2
BASIS		cc-pvtz
METHOD		rimp2
AUX_BASIS	rimp2-cc-pvtz
SOLVENT_METHOD	PCM
PURECART	11111
SYMMETRY	false
MEM_TOTAL	110000
SCF_CONVERGENCE = 6
THRESH=10
$end

$solvent
dielectric 4.90
$end
--------------------------------------------------------------

             Standard Nuclear Orientation (Angstroms)
    I     Atom           X                Y                Z
 ----------------------------------------------------------------
    1      C      -0.0632320000    -0.5737270000     0.0177100000
    2      C       0.0120680000     0.2865730000     1.1171100000
    3      C       0.1326680000     1.6652730000     0.7944100000
    4      H      -0.0200320000    -0.0808270000     2.1538100000
    5      C       0.1519680000     1.8850730000    -0.5947900000
    6      S       0.0189680000     0.3650730000    -1.4690900000
    7      C       0.2275680000     2.7488730000     1.8323100000
    8      H       0.1904680000     2.3247730000     2.8544100000
    9      H      -0.6044320000     3.4783730000     1.7439100000
   10      H       1.1735680000     3.3228730000     1.7439100000
   11      C      -0.0632320000    -2.0144270000     0.0177100000
   12      H       0.7641680000    -2.0146270000    -0.6763900000
   13      H      -0.5897320000    -2.7182270000    -0.6098900000
   14      H       0.5455680000    -2.5333270000     0.7432100000
   15      H       0.2346680000     2.8306730000    -1.1438900000
 ----------------------------------------------------------------

   10    -629.4235693529      6.40e-07  Convergence criterion met
 Total energy in the final basis set =     -629.4235693529
        RIMP2         total energy =      -630.5995496435 a.u.

                    Orbital Energies (a.u.)
 --------------------------------------------------------------

 Alpha MOs
 -- Occupied --
-91.9777 -11.2815 -11.2531 -11.2468 -11.2267 -11.2266 -11.2195  -8.9777
 -6.6587  -6.6582  -6.6576  -1.1607  -1.0559  -0.9961  -0.9445  -0.8820
 -0.7461  -0.7185  -0.6477  -0.5910  -0.5762  -0.5674  -0.5507  -0.5477
 -0.5079  -0.4908  -0.4652  -0.4523  -0.3392  -0.2943

          Ground-State Mulliken Net Atomic Charges

     Atom                 Charge (a.u.)
  ----------------------------------------
      1 C                     0.059047
      2 C                    -0.291103
      3 C                     0.045537
      4 H                     0.181137
      5 C                    -0.266037
      6 S                    -0.006274
      7 C                    -0.273171
      8 H                     0.101393
      9 H                     0.107332
     10 H                     0.107178
     11 C                    -0.373821
     12 H                     0.127489
     13 H                     0.150869
     14 H                     0.136778
     15 H                     0.193644
  ----------------------------------------
  Sum of atomic charges =     0.000000

                    Cartesian Multipole Moments
 -----------------------------------------------------------------
    Charge (ESU x 10^10)
                -0.0000
    Dipole Moment (Debye)
         X       0.6534      Y      -0.4057      Z       1.0267
       Tot       1.2828
    Quadrupole Moments (Debye-Ang)
        XX     -54.1287     XY      -0.3204     YY     -41.9443
        XZ       0.3605     YZ       1.3018     ZZ     -48.7066

 Total job time:  158.46s(wall), 157.23s(cpu)
        *  Thank you very much for using Q-Chem.  Have a nice day.  *
