 Q-Chem 5.4, Q-Chem, Inc., Pleasanton, CA (2021)
 Q-Chem 5.4.0 for Intel X86 EM64T Linux

User input:
--------------------------------------------------------------
$molecule
0 1
C	-0.584547	-0.237129	0.018946
C	0.163353	0.194671	1.118346
C	1.361853	0.886571	0.795646
H	-0.156047	0.010271	2.155046
C	1.552953	0.996871	-0.593554
S	0.231653	0.234071	-1.467854
C	2.303953	1.430471	1.833546
H	1.935253	1.217571	2.855646
H	2.424353	2.530371	1.745146
H	3.316753	0.984671	1.745146
C	-0.584547	-1.677829	0.018946
H	-1.124447	-1.677529	-0.916454
H	0.124953	-2.381629	-0.390554
H	-1.404747	-2.196729	0.492546
H	2.375053	1.471471	-1.142654
$end

$rem
JOBTYPE		SP
EXCHANGE	HF
CORRELATION	pRIMP2
BASIS		cc-pvtz
METHOD		rimp2
AUX_BASIS	rimp2-cc-pvtz
SOLVENT_METHOD	PCM
PURECART	11111
SYMMETRY	false
MEM_TOTAL	110000
SCF_CONVERGENCE = 6
THRESH=10
$end

$solvent
dielectric 4.90
$end
--------------------------------------------------------------

             Standard Nuclear Orientation (Angstroms)
    I     Atom           X                Y                Z
 ----------------------------------------------------------------
    1      C      -0.5845470000    -0.2371290000     0.0189460000
    2      C       0.1633530000     0.1946710000     1.1183460000
    3      C       1.3618530000     0.8865710000     0.7956460000
    4      H      -0.1560470000     0.0102710000     2.1550460000
    5      C       1.5529530000     0.9968710000    -0.5935540000
    6      S       0.2316530000     0.2340710000    -1.4678540000
    7      C       2.3039530000     1.4304710000     1.8335460000
    8      H       1.9352530000     1.2175710000     2.8556460000
    9      H       2.4243530000     2.5303710000     1.7451460000
   10      H       3.3167530000     0.9846710000     1.7451460000
   11      C      -0.5845470000    -1.6778290000     0.0189460000
   12      H      -1.1244470000    -1.6775290000    -0.9164540000
   13      H       0.1249530000    -2.3816290000    -0.3905540000
   14      H      -1.4047470000    -2.1967290000     0.4925460000
   15      H       2.3750530000     1.4714710000    -1.1426540000
 ----------------------------------------------------------------

   11    -629.3457890099      4.88e-07  Convergence criterion met
 Total energy in the final basis set =     -629.3457890099
        RIMP2         total energy =      -630.5356902031 a.u.

                    Orbital Energies (a.u.)
 --------------------------------------------------------------

 Alpha MOs
 -- Occupied --
-91.9763 -11.2857 -11.2536 -11.2487 -11.2374 -11.2288 -11.2069  -8.9771
 -6.6579  -6.6571  -6.6568  -1.1736  -1.0562  -0.9965  -0.9433  -0.8796
 -0.7551  -0.7292  -0.6428  -0.5903  -0.5794  -0.5724  -0.5509  -0.5452
 -0.5202  -0.4715  -0.4471  -0.4344  -0.3330  -0.3030

          Ground-State Mulliken Net Atomic Charges

     Atom                 Charge (a.u.)
  ----------------------------------------
      1 C                    -0.128499
      2 C                    -0.094535
      3 C                    -0.025684
      4 H                     0.185698
      5 C                    -0.173998
      6 S                     0.012935
      7 C                    -0.268339
      8 H                     0.102240
      9 H                     0.106421
     10 H                     0.103668
     11 C                    -0.372764
     12 H                     0.105049
     13 H                     0.134592
     14 H                     0.113913
     15 H                     0.199303
  ----------------------------------------
  Sum of atomic charges =     0.000000

                    Cartesian Multipole Moments
 -----------------------------------------------------------------
    Charge (ESU x 10^10)
                -0.0000
    Dipole Moment (Debye)
         X       2.3531      Y       0.3854      Z       1.3176
       Tot       2.7243
    Quadrupole Moments (Debye-Ang)
        XX     -47.6863     XY       4.7564     YY     -50.1203
        XZ      -0.4860     YZ       0.7434     ZZ     -47.8097

 Total job time:  177.18s(wall), 175.41s(cpu)
        *  Thank you very much for using Q-Chem.  Have a nice day.  *
