 Q-Chem 5.4, Q-Chem, Inc., Pleasanton, CA (2021)
 Q-Chem 5.4.0 for Intel X86 EM64T Linux

User input:
--------------------------------------------------------------
$molecule
0 1
C	0.004834	-0.576309	0.015607
C	0.004834	0.287291	1.115007
C	0.004934	1.671191	0.792307
H	0.004834	-0.081509	2.151707
C	0.004934	1.891891	-0.596893
S	0.004834	0.366091	-1.471193
C	0.004934	2.758991	1.830207
H	0.004934	2.333291	2.852307
H	-0.887466	3.413291	1.741807
H	0.897334	3.413191	1.741807
C	0.004834	-2.017009	0.015607
H	-1.075166	-2.017209	0.015507
H	0.004734	-2.720809	0.834807
H	0.004834	-2.535909	-0.931493
H	0.004934	2.841091	-1.145993
$end

$rem
JOBTYPE		SP
EXCHANGE	HF
CORRELATION	pRIMP2
BASIS		cc-pvtz
METHOD		rimp2
AUX_BASIS	rimp2-cc-pvtz
SOLVENT_METHOD	PCM
PURECART	11111
SYMMETRY	false
MEM_TOTAL	110000
SCF_CONVERGENCE = 6
THRESH=10
$end

$solvent
dielectric 4.90
$end
--------------------------------------------------------------

   10    -629.4244397093      7.11e-07  Convergence criterion met
 Total energy in the final basis set =     -629.4244397093
        RIMP2         total energy =      -630.5993897684 a.u.
 Total job time:  156.82s(wall), 155.13s(cpu)
        *  Thank you very much for using Q-Chem.  Have a nice day.  *
 Q-Chem 5.4, Q-Chem, Inc., Pleasanton, CA (2021)
 Q-Chem 5.4.0 for Intel X86 EM64T Linux

User input:
--------------------------------------------------------------
$molecule
0 1
C	0.004834	-0.576309	0.015607
C	0.004834	0.287291	1.115007
C	0.004934	1.671191	0.792307
H	0.004834	-0.081509	2.151707
C	0.004934	1.891891	-0.596893
S	0.004834	0.366091	-1.471193
C	0.004934	2.758991	1.830207
H	0.004934	2.333291	2.852307
H	-0.887466	3.413291	1.741807
H	0.897334	3.413191	1.741807
C	0.004834	-2.017009	0.015607
H	-1.075166	-2.017209	0.015507
H	0.004734	-2.720809	0.834807
H	0.004834	-2.535909	-0.931493
H	0.004934	2.841091	-1.145993
$end

$rem
JOBTYPE		SP
EXCHANGE	HF
CORRELATION	pRIMP2
BASIS		cc-pvtz
METHOD		rimp2
AUX_BASIS	rimp2-cc-pvtz
SOLVENT_METHOD	PCM
PURECART	11111
SYMMETRY	false
MEM_TOTAL	110000
SCF_CONVERGENCE = 6
THRESH=10
$end

$solvent
dielectric 4.90
$end
--------------------------------------------------------------

             Standard Nuclear Orientation (Angstroms)
    I     Atom           X                Y                Z
 ----------------------------------------------------------------
    1      C       0.0048340000    -0.5763090000     0.0156070000
    2      C       0.0048340000     0.2872910000     1.1150070000
    3      C       0.0049340000     1.6711910000     0.7923070000
    4      H       0.0048340000    -0.0815090000     2.1517070000
    5      C       0.0049340000     1.8918910000    -0.5968930000
    6      S       0.0048340000     0.3660910000    -1.4711930000
    7      C       0.0049340000     2.7589910000     1.8302070000
    8      H       0.0049340000     2.3332910000     2.8523070000
    9      H      -0.8874660000     3.4132910000     1.7418070000
   10      H       0.8973340000     3.4131910000     1.7418070000
   11      C       0.0048340000    -2.0170090000     0.0156070000
   12      H      -1.0751660000    -2.0172090000     0.0155070000
   13      H       0.0047340000    -2.7208090000     0.8348070000
   14      H       0.0048340000    -2.5359090000    -0.9314930000
   15      H       0.0049340000     2.8410910000    -1.1459930000
 ----------------------------------------------------------------

   10    -629.4244397093      7.11e-07  Convergence criterion met
 Total energy in the final basis set =     -629.4244397093
        RIMP2         total energy =      -630.5993897684 a.u.

                    Orbital Energies (a.u.)
 --------------------------------------------------------------

 Alpha MOs
 -- Occupied --
-91.9791 -11.2859 -11.2483 -11.2468 -11.2263 -11.2225 -11.2217  -8.9789
 -6.6599  -6.6593  -6.6587  -1.1601  -1.0564  -0.9971  -0.9425  -0.8825
 -0.7438  -0.7184  -0.6497  -0.5866  -0.5745  -0.5675  -0.5542  -0.5465
 -0.5071  -0.4948  -0.4657  -0.4574  -0.3385  -0.2881

          Ground-State Mulliken Net Atomic Charges

     Atom                 Charge (a.u.)
  ----------------------------------------
      1 C                     0.065647
      2 C                    -0.311076
      3 C                     0.051536
      4 H                     0.175526
      5 C                    -0.282949
      6 S                     0.003022
      7 C                    -0.274438
      8 H                     0.101383
      9 H                     0.107347
     10 H                     0.107207
     11 C                    -0.384306
     12 H                     0.144153
     13 H                     0.165635
     14 H                     0.138245
     15 H                     0.193069
  ----------------------------------------
  Sum of atomic charges =     0.000000

                    Cartesian Multipole Moments
 -----------------------------------------------------------------
    Charge (ESU x 10^10)
                -0.0000
    Dipole Moment (Debye)
         X      -0.7474      Y      -0.7725      Z       1.3728
       Tot       1.7436
    Quadrupole Moments (Debye-Ang)
        XX     -54.4152     XY       1.5706     YY     -41.6705
        XZ      -0.0507     YZ       0.2011     ZZ     -48.5758

 Total job time:  160.26s(wall), 158.40s(cpu)
        *  Thank you very much for using Q-Chem.  Have a nice day.  *
