 Q-Chem 5.4, Q-Chem, Inc., Pleasanton, CA (2021)
 Q-Chem 5.4.0 for Intel X86 EM64T Linux

User input:
--------------------------------------------------------------
$molecule
0 1
C	-0.582980	-0.237127	0.013104
C	0.164920	0.194673	1.112504
C	1.363420	0.886573	0.789804
H	-0.154480	0.010273	2.149204
C	1.554520	0.996873	-0.599396
S	0.233220	0.234073	-1.473696
C	2.305520	1.430473	1.827704
H	1.936820	1.217573	2.849804
H	2.425920	2.530373	1.739304
H	3.318320	0.984673	1.739304
C	-0.582980	-1.677827	0.013104
H	-1.518380	-1.678027	0.553004
H	-0.173480	-2.381627	0.722604
H	-1.056580	-2.196727	-0.807096
H	2.376620	1.471473	-1.148496
$end

$rem
JOBTYPE		SP
EXCHANGE	HF
CORRELATION	pRIMP2
BASIS		cc-pvtz
METHOD		rimp2
AUX_BASIS	rimp2-cc-pvtz
SOLVENT_METHOD	PCM
PURECART	11111
SYMMETRY	false
MEM_TOTAL	110000
SCF_CONVERGENCE = 6
THRESH=10
$end

$solvent
dielectric 4.90
$end
--------------------------------------------------------------

             Standard Nuclear Orientation (Angstroms)
    I     Atom           X                Y                Z
 ----------------------------------------------------------------
    1      C      -0.5829800000    -0.2371270000     0.0131040000
    2      C       0.1649200000     0.1946730000     1.1125040000
    3      C       1.3634200000     0.8865730000     0.7898040000
    4      H      -0.1544800000     0.0102730000     2.1492040000
    5      C       1.5545200000     0.9968730000    -0.5993960000
    6      S       0.2332200000     0.2340730000    -1.4736960000
    7      C       2.3055200000     1.4304730000     1.8277040000
    8      H       1.9368200000     1.2175730000     2.8498040000
    9      H       2.4259200000     2.5303730000     1.7393040000
   10      H       3.3183200000     0.9846730000     1.7393040000
   11      C      -0.5829800000    -1.6778270000     0.0131040000
   12      H      -1.5183800000    -1.6780270000     0.5530040000
   13      H      -0.1734800000    -2.3816270000     0.7226040000
   14      H      -1.0565800000    -2.1967270000    -0.8070960000
   15      H       2.3766200000     1.4714730000    -1.1484960000
 ----------------------------------------------------------------

   11    -629.3425802675      5.46e-07  Convergence criterion met
 Total energy in the final basis set =     -629.3425802675
        RIMP2         total energy =      -630.5346513777 a.u.

                    Orbital Energies (a.u.)
 --------------------------------------------------------------

 Alpha MOs
 -- Occupied --
-91.9706 -11.2816 -11.2541 -11.2493 -11.2414 -11.2290 -11.2059  -8.9718
 -6.6526  -6.6516  -6.6515  -1.1720  -1.0549  -0.9987  -0.9376  -0.8826
 -0.7492  -0.7313  -0.6442  -0.5864  -0.5804  -0.5651  -0.5538  -0.5424
 -0.5195  -0.4885  -0.4599  -0.4157  -0.3356  -0.2899

          Ground-State Mulliken Net Atomic Charges

     Atom                 Charge (a.u.)
  ----------------------------------------
      1 C                    -0.105987
      2 C                    -0.128762
      3 C                    -0.019699
      4 H                     0.184890
      5 C                    -0.178792
      6 S                     0.012625
      7 C                    -0.268522
      8 H                     0.101840
      9 H                     0.106742
     10 H                     0.104837
     11 C                    -0.395102
     12 H                     0.121299
     13 H                     0.144900
     14 H                     0.124054
     15 H                     0.195677
  ----------------------------------------
  Sum of atomic charges =     0.000000

                    Cartesian Multipole Moments
 -----------------------------------------------------------------
    Charge (ESU x 10^10)
                -0.0000
    Dipole Moment (Debye)
         X       1.9287      Y       0.1348      Z       2.0471
       Tot       2.8158
    Quadrupole Moments (Debye-Ang)
        XX     -47.6868     XY       5.1501     YY     -50.1058
        XZ      -0.1058     YZ      -0.4518     ZZ     -47.7026

 Total job time:  175.12s(wall), 173.92s(cpu)
        *  Thank you very much for using Q-Chem.  Have a nice day.  *
