 Q-Chem 5.4, Q-Chem, Inc., Pleasanton, CA (2021)
 Q-Chem 5.4.0 for Intel X86 EM64T Linux

User input:
--------------------------------------------------------------
$molecule
0 1
C	-0.342100	-0.485421	0.011118
C	0.089700	0.262479	1.110518
C	0.781700	1.460979	0.787818
H	-0.094700	-0.056921	2.147218
C	0.892000	1.652079	-0.601382
S	0.129100	0.330679	-1.475682
C	1.325600	2.402979	1.825718
H	1.112800	2.034379	2.847818
H	0.879900	3.415779	1.737318
H	2.425600	2.523379	1.737318
C	-0.342100	-1.926121	0.011118
H	0.197800	-1.925821	0.946518
H	-1.051600	-2.629921	0.420618
H	0.478100	-2.445021	-0.462482
H	1.366700	2.474079	-1.150482
$end

$rem
JOBTYPE		SP
EXCHANGE	HF
CORRELATION	pRIMP2
BASIS		cc-pvtz
METHOD		rimp2
AUX_BASIS	rimp2-cc-pvtz
SOLVENT_METHOD	PCM
PURECART	11111
SYMMETRY	false
MEM_TOTAL	110000
SCF_CONVERGENCE = 6
THRESH=10
$end

$solvent
dielectric 4.90
$end
--------------------------------------------------------------

   10    -629.4033174184      5.15e-07  Convergence criterion met
 Total energy in the final basis set =     -629.4033174184
        RIMP2         total energy =      -630.5852573617 a.u.
 Total job time:  159.99s(wall), 159.09s(cpu)
        *  Thank you very much for using Q-Chem.  Have a nice day.  *
 Q-Chem 5.4, Q-Chem, Inc., Pleasanton, CA (2021)
 Q-Chem 5.4.0 for Intel X86 EM64T Linux

User input:
--------------------------------------------------------------
$molecule
0 1
C	-0.342100	-0.485421	0.011118
C	0.089700	0.262479	1.110518
C	0.781700	1.460979	0.787818
H	-0.094700	-0.056921	2.147218
C	0.892000	1.652079	-0.601382
S	0.129100	0.330679	-1.475682
C	1.325600	2.402979	1.825718
H	1.112800	2.034379	2.847818
H	0.879900	3.415779	1.737318
H	2.425600	2.523379	1.737318
C	-0.342100	-1.926121	0.011118
H	0.197800	-1.925821	0.946518
H	-1.051600	-2.629921	0.420618
H	0.478100	-2.445021	-0.462482
H	1.366700	2.474079	-1.150482
$end

$rem
JOBTYPE		SP
EXCHANGE	HF
CORRELATION	pRIMP2
BASIS		cc-pvtz
METHOD		rimp2
AUX_BASIS	rimp2-cc-pvtz
SOLVENT_METHOD	PCM
PURECART	11111
SYMMETRY	false
MEM_TOTAL	110000
SCF_CONVERGENCE = 6
THRESH=10
$end

$solvent
dielectric 4.90
$end
--------------------------------------------------------------

             Standard Nuclear Orientation (Angstroms)
    I     Atom           X                Y                Z
 ----------------------------------------------------------------
    1      C      -0.3421000000    -0.4854210000     0.0111180000
    2      C       0.0897000000     0.2624790000     1.1105180000
    3      C       0.7817000000     1.4609790000     0.7878180000
    4      H      -0.0947000000    -0.0569210000     2.1472180000
    5      C       0.8920000000     1.6520790000    -0.6013820000
    6      S       0.1291000000     0.3306790000    -1.4756820000
    7      C       1.3256000000     2.4029790000     1.8257180000
    8      H       1.1128000000     2.0343790000     2.8478180000
    9      H       0.8799000000     3.4157790000     1.7373180000
   10      H       2.4256000000     2.5233790000     1.7373180000
   11      C      -0.3421000000    -1.9261210000     0.0111180000
   12      H       0.1978000000    -1.9258210000     0.9465180000
   13      H      -1.0516000000    -2.6299210000     0.4206180000
   14      H       0.4781000000    -2.4450210000    -0.4624820000
   15      H       1.3667000000     2.4740790000    -1.1504820000
 ----------------------------------------------------------------

   10    -629.4033174184      5.15e-07  Convergence criterion met
 Total energy in the final basis set =     -629.4033174184
        RIMP2         total energy =      -630.5852573617 a.u.

                    Orbital Energies (a.u.)
 --------------------------------------------------------------

 Alpha MOs
 -- Occupied --
-91.9768 -11.2736 -11.2591 -11.2473 -11.2335 -11.2275 -11.2135  -8.9767
 -6.6577  -6.6571  -6.6566  -1.1640  -1.0545  -0.9990  -0.9377  -0.8831
 -0.7431  -0.7251  -0.6467  -0.5909  -0.5767  -0.5677  -0.5574  -0.5427
 -0.5115  -0.4775  -0.4682  -0.4443  -0.3351  -0.2981

          Ground-State Mulliken Net Atomic Charges

     Atom                 Charge (a.u.)
  ----------------------------------------
      1 C                     0.023858
      2 C                    -0.251321
      3 C                     0.029508
      4 H                     0.175874
      5 C                    -0.248573
      6 S                     0.000601
      7 C                    -0.270930
      8 H                     0.101256
      9 H                     0.107247
     10 H                     0.106202
     11 C                    -0.381545
     12 H                     0.136063
     13 H                     0.140978
     14 H                     0.138034
     15 H                     0.192747
  ----------------------------------------
  Sum of atomic charges =     0.000000

                    Cartesian Multipole Moments
 -----------------------------------------------------------------
    Charge (ESU x 10^10)
                -0.0000
    Dipole Moment (Debye)
         X       1.1606      Y      -0.1177      Z       2.0683
       Tot       2.3746
    Quadrupole Moments (Debye-Ang)
        XX     -52.1250     XY       3.1396     YY     -44.8902
        XZ      -0.3535     YZ      -1.0090     ZZ     -48.5625

 Total job time:  159.04s(wall), 157.43s(cpu)
        *  Thank you very much for using Q-Chem.  Have a nice day.  *
