 Q-Chem 5.4, Q-Chem, Inc., Pleasanton, CA (2021)
 Q-Chem 5.4.0 for Intel X86 EM64T Linux

User input:
--------------------------------------------------------------
$molecule
0 1
C	-0.290782	-0.512744	0.017710
C	0.074218	0.269956	1.117110
C	0.659118	1.524156	0.794410
H	-0.081682	-0.064344	2.153810
C	0.752418	1.724156	-0.594790
S	0.107518	0.341356	-1.469090
C	1.118818	2.509956	1.832310
H	0.938918	2.124256	2.854410
H	0.586518	3.480156	1.743910
H	2.204118	2.725856	1.743910
C	-0.290782	-1.953444	0.017710
H	0.536618	-1.953644	-0.676390
H	-0.817282	-2.657244	-0.609890
H	0.318018	-2.472344	0.743210
H	1.153518	2.584456	-1.143890
$end

$rem
JOBTYPE		SP
EXCHANGE	HF
CORRELATION	pRIMP2
BASIS		cc-pvtz
METHOD		rimp2
AUX_BASIS	rimp2-cc-pvtz
SOLVENT_METHOD	PCM
PURECART	11111
SYMMETRY	false
MEM_TOTAL	110000
SCF_CONVERGENCE = 6
THRESH=10
$end

$solvent
dielectric 4.90
$end
--------------------------------------------------------------

             Standard Nuclear Orientation (Angstroms)
    I     Atom           X                Y                Z
 ----------------------------------------------------------------
    1      C      -0.2907820000    -0.5127440000     0.0177100000
    2      C       0.0742180000     0.2699560000     1.1171100000
    3      C       0.6591180000     1.5241560000     0.7944100000
    4      H      -0.0816820000    -0.0643440000     2.1538100000
    5      C       0.7524180000     1.7241560000    -0.5947900000
    6      S       0.1075180000     0.3413560000    -1.4690900000
    7      C       1.1188180000     2.5099560000     1.8323100000
    8      H       0.9389180000     2.1242560000     2.8544100000
    9      H       0.5865180000     3.4801560000     1.7439100000
   10      H       2.2041180000     2.7258560000     1.7439100000
   11      C      -0.2907820000    -1.9534440000     0.0177100000
   12      H       0.5366180000    -1.9536440000    -0.6763900000
   13      H      -0.8172820000    -2.6572440000    -0.6098900000
   14      H       0.3180180000    -2.4723440000     0.7432100000
   15      H       1.1535180000     2.5844560000    -1.1438900000
 ----------------------------------------------------------------

   10    -629.4118846906      6.50e-07  Convergence criterion met
 Total energy in the final basis set =     -629.4118846906
        RIMP2         total energy =      -630.5903787140 a.u.

                    Orbital Energies (a.u.)
 --------------------------------------------------------------

 Alpha MOs
 -- Occupied --
-91.9753 -11.2782 -11.2564 -11.2471 -11.2301 -11.2270 -11.2178  -8.9758
 -6.6568  -6.6562  -6.6556  -1.1633  -1.0563  -0.9953  -0.9437  -0.8811
 -0.7472  -0.7199  -0.6465  -0.5903  -0.5783  -0.5659  -0.5506  -0.5480
 -0.5086  -0.4911  -0.4631  -0.4496  -0.3396  -0.2935

          Ground-State Mulliken Net Atomic Charges

     Atom                 Charge (a.u.)
  ----------------------------------------
      1 C                     0.052730
      2 C                    -0.309080
      3 C                     0.057202
      4 H                     0.179598
      5 C                    -0.260707
      6 S                    -0.005863
      7 C                    -0.270737
      8 H                     0.101550
      9 H                     0.107645
     10 H                     0.106770
     11 C                    -0.374347
     12 H                     0.136215
     13 H                     0.147936
     14 H                     0.138077
     15 H                     0.193009
  ----------------------------------------
  Sum of atomic charges =     0.000000

                    Cartesian Multipole Moments
 -----------------------------------------------------------------
    Charge (ESU x 10^10)
                -0.0000
    Dipole Moment (Debye)
         X       1.1540      Y      -0.3321      Z       1.0998
       Tot       1.6284
    Quadrupole Moments (Debye-Ang)
        XX     -52.9606     XY       2.3812     YY     -43.7899
        XZ       0.4653     YZ       1.2338     ZZ     -48.6171

 Total job time:  158.25s(wall), 156.62s(cpu)
        *  Thank you very much for using Q-Chem.  Have a nice day.  *
