 Q-Chem 5.4, Q-Chem, Inc., Pleasanton, CA (2021)
 Q-Chem 5.4.0 for Intel X86 EM64T Linux

User input:
--------------------------------------------------------------
$molecule
0 1
C	-0.113898	-0.566010	0.012109
C	0.036102	0.284490	1.111509
C	0.276402	1.647390	0.788809
H	-0.027998	-0.078710	2.148209
C	0.314802	1.864690	-0.600391
S	0.049802	0.362090	-1.474691
C	0.465302	2.718590	1.826709
H	0.391402	2.299390	2.848809
H	-0.299898	3.517890	1.738309
H	1.457802	3.207890	1.738309
C	-0.113898	-2.006710	0.012109
H	-1.049298	-2.006410	0.552009
H	-0.523398	-2.710510	-0.697391
H	0.359702	-2.525610	0.832309
H	0.479602	2.799390	-1.149491
$end

$rem
JOBTYPE		SP
EXCHANGE	HF
CORRELATION	pRIMP2
BASIS		cc-pvtz
METHOD		rimp2
AUX_BASIS	rimp2-cc-pvtz
SOLVENT_METHOD	PCM
PURECART	11111
SYMMETRY	false
MEM_TOTAL	110000
SCF_CONVERGENCE = 6
THRESH=10
$end

$solvent
dielectric 4.90
$end
--------------------------------------------------------------

   10    -629.4213425352      6.29e-07  Convergence criterion met
 Total energy in the final basis set =     -629.4213425352
        RIMP2         total energy =      -630.5985337716 a.u.
 Total job time:  157.56s(wall), 154.90s(cpu)
        *  Thank you very much for using Q-Chem.  Have a nice day.  *
 Q-Chem 5.4, Q-Chem, Inc., Pleasanton, CA (2021)
 Q-Chem 5.4.0 for Intel X86 EM64T Linux

User input:
--------------------------------------------------------------
$molecule
0 1
C	-0.113898	-0.566010	0.012109
C	0.036102	0.284490	1.111509
C	0.276402	1.647390	0.788809
H	-0.027998	-0.078710	2.148209
C	0.314802	1.864690	-0.600391
S	0.049802	0.362090	-1.474691
C	0.465302	2.718590	1.826709
H	0.391402	2.299390	2.848809
H	-0.299898	3.517890	1.738309
H	1.457802	3.207890	1.738309
C	-0.113898	-2.006710	0.012109
H	-1.049298	-2.006410	0.552009
H	-0.523398	-2.710510	-0.697391
H	0.359702	-2.525610	0.832309
H	0.479602	2.799390	-1.149491
$end

$rem
JOBTYPE		SP
EXCHANGE	HF
CORRELATION	pRIMP2
BASIS		cc-pvtz
METHOD		rimp2
AUX_BASIS	rimp2-cc-pvtz
SOLVENT_METHOD	PCM
PURECART	11111
SYMMETRY	false
MEM_TOTAL	110000
SCF_CONVERGENCE = 6
THRESH=10
$end

$solvent
dielectric 4.90
$end
--------------------------------------------------------------

             Standard Nuclear Orientation (Angstroms)
    I     Atom           X                Y                Z
 ----------------------------------------------------------------
    1      C      -0.1138980000    -0.5660100000     0.0121090000
    2      C       0.0361020000     0.2844900000     1.1115090000
    3      C       0.2764020000     1.6473900000     0.7888090000
    4      H      -0.0279980000    -0.0787100000     2.1482090000
    5      C       0.3148020000     1.8646900000    -0.6003910000
    6      S       0.0498020000     0.3620900000    -1.4746910000
    7      C       0.4653020000     2.7185900000     1.8267090000
    8      H       0.3914020000     2.2993900000     2.8488090000
    9      H      -0.2998980000     3.5178900000     1.7383090000
   10      H       1.4578020000     3.2078900000     1.7383090000
   11      C      -0.1138980000    -2.0067100000     0.0121090000
   12      H      -1.0492980000    -2.0064100000     0.5520090000
   13      H      -0.5233980000    -2.7105100000    -0.6973910000
   14      H       0.3597020000    -2.5256100000     0.8323090000
   15      H       0.4796020000     2.7993900000    -1.1494910000
 ----------------------------------------------------------------

   10    -629.4213425352      6.29e-07  Convergence criterion met
 Total energy in the final basis set =     -629.4213425352
        RIMP2         total energy =      -630.5985337716 a.u.

                    Orbital Energies (a.u.)
 --------------------------------------------------------------

 Alpha MOs
 -- Occupied --
-91.9767 -11.2834 -11.2503 -11.2473 -11.2267 -11.2265 -11.2197  -8.9766
 -6.6576  -6.6570  -6.6564  -1.1601  -1.0553  -0.9984  -0.9404  -0.8835
 -0.7426  -0.7201  -0.6477  -0.5903  -0.5741  -0.5694  -0.5570  -0.5439
 -0.5092  -0.4917  -0.4638  -0.4505  -0.3374  -0.2910

          Ground-State Mulliken Net Atomic Charges

     Atom                 Charge (a.u.)
  ----------------------------------------
      1 C                     0.071867
      2 C                    -0.307711
      3 C                     0.049491
      4 H                     0.175684
      5 C                    -0.273084
      6 S                    -0.001268
      7 C                    -0.275000
      8 H                     0.101101
      9 H                     0.107245
     10 H                     0.107418
     11 C                    -0.386832
     12 H                     0.138008
     13 H                     0.161826
     14 H                     0.139774
     15 H                     0.191482
  ----------------------------------------
  Sum of atomic charges =     0.000000

                    Cartesian Multipole Moments
 -----------------------------------------------------------------
    Charge (ESU x 10^10)
                -0.0000
    Dipole Moment (Debye)
         X      -0.4287      Y      -0.6058      Z       1.7992
       Tot       1.9463
    Quadrupole Moments (Debye-Ang)
        XX     -53.8136     XY       2.9557     YY     -42.1986
        XZ       0.2918     YZ      -0.2603     ZZ     -48.6545

 Total job time:  156.68s(wall), 155.44s(cpu)
        *  Thank you very much for using Q-Chem.  Have a nice day.  *
