 Q-Chem 5.4, Q-Chem, Inc., Pleasanton, CA (2021)
 Q-Chem 5.4.0 for Intel X86 EM64T Linux

User input:
--------------------------------------------------------------
$molecule
0 1
C	-0.431678	-0.417594	0.017232
C	0.123422	0.243906	1.116632
C	1.013022	1.304106	0.793932
H	-0.113578	-0.038594	2.153332
C	1.154922	1.473106	-0.595268
S	0.174122	0.304306	-1.469568
C	1.712222	2.137306	1.831832
H	1.438622	1.811306	2.853932
H	1.449222	3.212106	1.743432
H	2.816422	2.064906	1.743432
C	-0.431678	-1.858294	0.017232
H	-1.446478	-1.858494	-0.352268
H	-0.711878	-2.562094	0.787032
H	-0.107778	-2.377194	-0.872768
H	1.765022	2.200206	-1.144368
$end

$rem
JOBTYPE		SP
EXCHANGE	HF
CORRELATION	pRIMP2
BASIS		cc-pvtz
METHOD		rimp2
AUX_BASIS	rimp2-cc-pvtz
SOLVENT_METHOD	PCM
PURECART	11111
SYMMETRY	false
MEM_TOTAL	110000
SCF_CONVERGENCE = 6
THRESH=10
$end

$solvent
dielectric 4.90
$end
--------------------------------------------------------------

             Standard Nuclear Orientation (Angstroms)
    I     Atom           X                Y                Z
 ----------------------------------------------------------------
    1      C      -0.4316780000    -0.4175940000     0.0172320000
    2      C       0.1234220000     0.2439060000     1.1166320000
    3      C       1.0130220000     1.3041060000     0.7939320000
    4      H      -0.1135780000    -0.0385940000     2.1533320000
    5      C       1.1549220000     1.4731060000    -0.5952680000
    6      S       0.1741220000     0.3043060000    -1.4695680000
    7      C       1.7122220000     2.1373060000     1.8318320000
    8      H       1.4386220000     1.8113060000     2.8539320000
    9      H       1.4492220000     3.2121060000     1.7434320000
   10      H       2.8164220000     2.0649060000     1.7434320000
   11      C      -0.4316780000    -1.8582940000     0.0172320000
   12      H      -1.4464780000    -1.8584940000    -0.3522680000
   13      H      -0.7118780000    -2.5620940000     0.7870320000
   14      H      -0.1077780000    -2.3771940000    -0.8727680000
   15      H       1.7650220000     2.2002060000    -1.1443680000
 ----------------------------------------------------------------

   10    -629.3822134602      5.99e-07  Convergence criterion met
 Total energy in the final basis set =     -629.3822134602
        RIMP2         total energy =      -630.5671415431 a.u.

                    Orbital Energies (a.u.)
 --------------------------------------------------------------

 Alpha MOs
 -- Occupied --
-91.9766 -11.2662 -11.2626 -11.2473 -11.2337 -11.2270 -11.2114  -8.9769
 -6.6579  -6.6572  -6.6567  -1.1639  -1.0542  -0.9953  -0.9428  -0.8816
 -0.7470  -0.7219  -0.6444  -0.5867  -0.5738  -0.5688  -0.5527  -0.5446
 -0.5131  -0.4888  -0.4574  -0.4451  -0.3371  -0.2873

          Ground-State Mulliken Net Atomic Charges

     Atom                 Charge (a.u.)
  ----------------------------------------
      1 C                    -0.025630
      2 C                    -0.224567
      3 C                     0.033052
      4 H                     0.180945
      5 C                    -0.241932
      6 S                     0.002121
      7 C                    -0.270723
      8 H                     0.101360
      9 H                     0.107030
     10 H                     0.105448
     11 C                    -0.382759
     12 H                     0.126820
     13 H                     0.153443
     14 H                     0.140229
     15 H                     0.195160
  ----------------------------------------
  Sum of atomic charges =     0.000000

                    Cartesian Multipole Moments
 -----------------------------------------------------------------
    Charge (ESU x 10^10)
                -0.0000
    Dipole Moment (Debye)
         X       0.5667      Y      -0.1395      Z       1.3351
       Tot       1.4570
    Quadrupole Moments (Debye-Ang)
        XX     -50.5452     XY       5.6925     YY     -46.2823
        XZ      -0.2071     YZ       0.3479     ZZ     -48.1857

 Total job time:  157.06s(wall), 154.76s(cpu)
        *  Thank you very much for using Q-Chem.  Have a nice day.  *
