 Q-Chem 5.4, Q-Chem, Inc., Pleasanton, CA (2021)
 Q-Chem 5.4.0 for Intel X86 EM64T Linux

User input:
--------------------------------------------------------------
$molecule
0 1
C	-0.334814	-0.485419	0.017232
C	0.096986	0.262481	1.116632
C	0.788986	1.460981	0.793932
H	-0.087414	-0.056919	2.153332
C	0.899286	1.652081	-0.595268
S	0.136386	0.330681	-1.469568
C	1.332886	2.402981	1.831832
H	1.120086	2.034381	2.853932
H	0.887186	3.415781	1.743432
H	2.432886	2.523381	1.743432
C	-0.334814	-1.926119	0.017232
H	-1.349614	-1.926319	-0.352268
H	-0.615014	-2.629919	0.787032
H	-0.010914	-2.445019	-0.872768
H	1.373986	2.474081	-1.144368
$end

$rem
JOBTYPE		SP
EXCHANGE	HF
CORRELATION	pRIMP2
BASIS		cc-pvtz
METHOD		rimp2
AUX_BASIS	rimp2-cc-pvtz
SOLVENT_METHOD	PCM
PURECART	11111
SYMMETRY	false
MEM_TOTAL	110000
SCF_CONVERGENCE = 6
THRESH=10
$end

$solvent
dielectric 4.90
$end
--------------------------------------------------------------

   10    -629.3993905607      5.47e-07  Convergence criterion met
 Total energy in the final basis set =     -629.3993905607
        RIMP2         total energy =      -630.5804818129 a.u.
 Total job time:  157.10s(wall), 155.09s(cpu)
        *  Thank you very much for using Q-Chem.  Have a nice day.  *
 Q-Chem 5.4, Q-Chem, Inc., Pleasanton, CA (2021)
 Q-Chem 5.4.0 for Intel X86 EM64T Linux

User input:
--------------------------------------------------------------
$molecule
0 1
C	-0.334814	-0.485419	0.017232
C	0.096986	0.262481	1.116632
C	0.788986	1.460981	0.793932
H	-0.087414	-0.056919	2.153332
C	0.899286	1.652081	-0.595268
S	0.136386	0.330681	-1.469568
C	1.332886	2.402981	1.831832
H	1.120086	2.034381	2.853932
H	0.887186	3.415781	1.743432
H	2.432886	2.523381	1.743432
C	-0.334814	-1.926119	0.017232
H	-1.349614	-1.926319	-0.352268
H	-0.615014	-2.629919	0.787032
H	-0.010914	-2.445019	-0.872768
H	1.373986	2.474081	-1.144368
$end

$rem
JOBTYPE		SP
EXCHANGE	HF
CORRELATION	pRIMP2
BASIS		cc-pvtz
METHOD		rimp2
AUX_BASIS	rimp2-cc-pvtz
SOLVENT_METHOD	PCM
PURECART	11111
SYMMETRY	false
MEM_TOTAL	110000
SCF_CONVERGENCE = 6
THRESH=10
$end

$solvent
dielectric 4.90
$end
--------------------------------------------------------------

             Standard Nuclear Orientation (Angstroms)
    I     Atom           X                Y                Z
 ----------------------------------------------------------------
    1      C      -0.3348140000    -0.4854190000     0.0172320000
    2      C       0.0969860000     0.2624810000     1.1166320000
    3      C       0.7889860000     1.4609810000     0.7939320000
    4      H      -0.0874140000    -0.0569190000     2.1533320000
    5      C       0.8992860000     1.6520810000    -0.5952680000
    6      S       0.1363860000     0.3306810000    -1.4695680000
    7      C       1.3328860000     2.4029810000     1.8318320000
    8      H       1.1200860000     2.0343810000     2.8539320000
    9      H       0.8871860000     3.4157810000     1.7434320000
   10      H       2.4328860000     2.5233810000     1.7434320000
   11      C      -0.3348140000    -1.9261190000     0.0172320000
   12      H      -1.3496140000    -1.9263190000    -0.3522680000
   13      H      -0.6150140000    -2.6299190000     0.7870320000
   14      H      -0.0109140000    -2.4450190000    -0.8727680000
   15      H       1.3739860000     2.4740810000    -1.1443680000
 ----------------------------------------------------------------

   10    -629.3993905607      5.47e-07  Convergence criterion met
 Total energy in the final basis set =     -629.3993905607
        RIMP2         total energy =      -630.5804818129 a.u.

                    Orbital Energies (a.u.)
 --------------------------------------------------------------

 Alpha MOs
 -- Occupied --
-91.9778 -11.2741 -11.2569 -11.2470 -11.2288 -11.2266 -11.2151  -8.9778
 -6.6588  -6.6582  -6.6576  -1.1619  -1.0547  -0.9956  -0.9434  -0.8819
 -0.7458  -0.7200  -0.6461  -0.5868  -0.5734  -0.5687  -0.5527  -0.5455
 -0.5112  -0.4903  -0.4578  -0.4523  -0.3378  -0.2883

          Ground-State Mulliken Net Atomic Charges

     Atom                 Charge (a.u.)
  ----------------------------------------
      1 C                     0.004194
      2 C                    -0.254671
      3 C                     0.041245
      4 H                     0.180077
      5 C                    -0.258281
      6 S                    -0.000417
      7 C                    -0.271507
      8 H                     0.101378
      9 H                     0.107065
     10 H                     0.106130
     11 C                    -0.378896
     12 H                     0.129967
     13 H                     0.157825
     14 H                     0.141339
     15 H                     0.194551
  ----------------------------------------
  Sum of atomic charges =     0.000000

                    Cartesian Multipole Moments
 -----------------------------------------------------------------
    Charge (ESU x 10^10)
                -0.0000
    Dipole Moment (Debye)
         X       0.1170      Y      -0.3172      Z       1.2567
       Tot       1.3014
    Quadrupole Moments (Debye-Ang)
        XX     -51.9239     XY       5.2293     YY     -44.4766
        XZ      -0.1383     YZ       0.4725     ZZ     -48.3810

 Total job time:  156.32s(wall), 155.11s(cpu)
        *  Thank you very much for using Q-Chem.  Have a nice day.  *
