 Q-Chem 5.4, Q-Chem, Inc., Pleasanton, CA (2021)
 Q-Chem 5.4.0 for Intel X86 EM64T Linux

User input:
--------------------------------------------------------------
$molecule
0 1
C	-0.440892	-0.417597	0.015606
C	0.114208	0.243903	1.115006
C	1.003808	1.304103	0.792306
H	-0.122792	-0.038597	2.151706
C	1.145708	1.473103	-0.596894
S	0.164908	0.304303	-1.471194
C	1.703008	2.137303	1.830206
H	1.429408	1.811303	2.852306
H	1.440008	3.212103	1.741806
H	2.807208	2.064903	1.741806
C	-0.440892	-1.858297	0.015606
H	0.639108	-1.857997	0.015706
H	-0.440992	-2.562097	0.834806
H	-0.440892	-2.377197	-0.931494
H	1.755808	2.200203	-1.145994
$end

$rem
JOBTYPE		SP
EXCHANGE	HF
CORRELATION	pRIMP2
BASIS		cc-pvtz
METHOD		rimp2
AUX_BASIS	rimp2-cc-pvtz
SOLVENT_METHOD	PCM
PURECART	11111
SYMMETRY	false
MEM_TOTAL	110000
SCF_CONVERGENCE = 6
THRESH=10
$end

$solvent
dielectric 4.90
$end
--------------------------------------------------------------

             Standard Nuclear Orientation (Angstroms)
    I     Atom           X                Y                Z
 ----------------------------------------------------------------
    1      C      -0.4408920000    -0.4175970000     0.0156060000
    2      C       0.1142080000     0.2439030000     1.1150060000
    3      C       1.0038080000     1.3041030000     0.7923060000
    4      H      -0.1227920000    -0.0385970000     2.1517060000
    5      C       1.1457080000     1.4731030000    -0.5968940000
    6      S       0.1649080000     0.3043030000    -1.4711940000
    7      C       1.7030080000     2.1373030000     1.8302060000
    8      H       1.4294080000     1.8113030000     2.8523060000
    9      H       1.4400080000     3.2121030000     1.7418060000
   10      H       2.8072080000     2.0649030000     1.7418060000
   11      C      -0.4408920000    -1.8582970000     0.0156060000
   12      H       0.6391080000    -1.8579970000     0.0157060000
   13      H      -0.4409920000    -2.5620970000     0.8348060000
   14      H      -0.4408920000    -2.3771970000    -0.9314940000
   15      H       1.7558080000     2.2002030000    -1.1459940000
 ----------------------------------------------------------------

   10    -629.3935737351      5.89e-07  Convergence criterion met
 Total energy in the final basis set =     -629.3935737351
        RIMP2         total energy =      -630.5762649432 a.u.

                    Orbital Energies (a.u.)
 --------------------------------------------------------------

 Alpha MOs
 -- Occupied --
-91.9772 -11.2758 -11.2595 -11.2488 -11.2290 -11.2275 -11.2192  -8.9775
 -6.6585  -6.6579  -6.6573  -1.1675  -1.0573  -0.9965  -0.9401  -0.8813
 -0.7468  -0.7226  -0.6476  -0.5866  -0.5802  -0.5656  -0.5539  -0.5462
 -0.5076  -0.4937  -0.4605  -0.4543  -0.3389  -0.2872

          Ground-State Mulliken Net Atomic Charges

     Atom                 Charge (a.u.)
  ----------------------------------------
      1 C                     0.016543
      2 C                    -0.270536
      3 C                     0.044635
      4 H                     0.175281
      5 C                    -0.260450
      6 S                     0.004975
      7 C                    -0.269803
      8 H                     0.101919
      9 H                     0.107808
     10 H                     0.105772
     11 C                    -0.370529
     12 H                     0.142574
     13 H                     0.150040
     14 H                     0.127518
     15 H                     0.194252
  ----------------------------------------
  Sum of atomic charges =     0.000000

                    Cartesian Multipole Moments
 -----------------------------------------------------------------
    Charge (ESU x 10^10)
                -0.0000
    Dipole Moment (Debye)
         X       1.6744      Y      -0.4438      Z       1.5036
       Tot       2.2938
    Quadrupole Moments (Debye-Ang)
        XX     -51.6511     XY       3.3874     YY     -45.9872
        XZ       0.1399     YZ      -0.0927     ZZ     -48.3138

 Total job time:  162.74s(wall), 159.99s(cpu)
        *  Thank you very much for using Q-Chem.  Have a nice day.  *
