 Q-Chem 5.4, Q-Chem, Inc., Pleasanton, CA (2021)
 Q-Chem 5.4.0 for Intel X86 EM64T Linux

User input:
--------------------------------------------------------------
$molecule
0 1
C	-0.586351	-0.237127	0.019788
C	0.161549	0.194673	1.119188
C	1.360049	0.886573	0.796488
H	-0.157851	0.010273	2.155888
C	1.551149	0.996873	-0.592712
S	0.229849	0.234073	-1.467012
C	2.302149	1.430473	1.834388
H	1.933449	1.217573	2.856488
H	2.422549	2.530373	1.745988
H	3.314949	0.984673	1.745988
C	-0.586351	-1.677827	0.019788
H	-0.955651	-1.678027	-0.995112
H	-1.356151	-2.381627	0.299888
H	0.303649	-2.196727	-0.304112
H	2.373249	1.471473	-1.141812
$end

$rem
JOBTYPE		SP
EXCHANGE	HF
CORRELATION	pRIMP2
BASIS		cc-pvtz
METHOD		rimp2
AUX_BASIS	rimp2-cc-pvtz
SOLVENT_METHOD	PCM
PURECART	11111
SYMMETRY	false
MEM_TOTAL	110000
SCF_CONVERGENCE = 6
THRESH=10
$end

$solvent
dielectric 4.90
$end
--------------------------------------------------------------

             Standard Nuclear Orientation (Angstroms)
    I     Atom           X                Y                Z
 ----------------------------------------------------------------
    1      C      -0.5863510000    -0.2371270000     0.0197880000
    2      C       0.1615490000     0.1946730000     1.1191880000
    3      C       1.3600490000     0.8865730000     0.7964880000
    4      H      -0.1578510000     0.0102730000     2.1558880000
    5      C       1.5511490000     0.9968730000    -0.5927120000
    6      S       0.2298490000     0.2340730000    -1.4670120000
    7      C       2.3021490000     1.4304730000     1.8343880000
    8      H       1.9334490000     1.2175730000     2.8564880000
    9      H       2.4225490000     2.5303730000     1.7459880000
   10      H       3.3149490000     0.9846730000     1.7459880000
   11      C      -0.5863510000    -1.6778270000     0.0197880000
   12      H      -0.9556510000    -1.6780270000    -0.9951120000
   13      H      -1.3561510000    -2.3816270000     0.2998880000
   14      H       0.3036490000    -2.1967270000    -0.3041120000
   15      H       2.3732490000     1.4714730000    -1.1418120000
 ----------------------------------------------------------------

   11    -629.3476433408      4.55e-07  Convergence criterion met
 Total energy in the final basis set =     -629.3476433408
        RIMP2         total energy =      -630.5376320390 a.u.

                    Orbital Energies (a.u.)
 --------------------------------------------------------------

 Alpha MOs
 -- Occupied --
-91.9760 -11.2849 -11.2523 -11.2483 -11.2408 -11.2287 -11.2081  -8.9770
 -6.6578  -6.6569  -6.6566  -1.1746  -1.0575  -0.9959  -0.9440  -0.8785
 -0.7558  -0.7286  -0.6433  -0.5950  -0.5800  -0.5674  -0.5515  -0.5464
 -0.5180  -0.4691  -0.4482  -0.4400  -0.3314  -0.3056

          Ground-State Mulliken Net Atomic Charges

     Atom                 Charge (a.u.)
  ----------------------------------------
      1 C                    -0.116698
      2 C                    -0.097854
      3 C                    -0.025439
      4 H                     0.184314
      5 C                    -0.180162
      6 S                     0.012155
      7 C                    -0.268831
      8 H                     0.102265
      9 H                     0.106594
     10 H                     0.103715
     11 C                    -0.365486
     12 H                     0.104881
     13 H                     0.129341
     14 H                     0.111679
     15 H                     0.199527
  ----------------------------------------
  Sum of atomic charges =     0.000000

                    Cartesian Multipole Moments
 -----------------------------------------------------------------
    Charge (ESU x 10^10)
                -0.0000
    Dipole Moment (Debye)
         X       2.3578      Y       0.2879      Z       1.2393
       Tot       2.6792
    Quadrupole Moments (Debye-Ang)
        XX     -47.7023     XY       4.9193     YY     -50.0552
        XZ      -0.3464     YZ       0.7568     ZZ     -47.8679

 Total job time:  176.84s(wall), 175.65s(cpu)
        *  Thank you very much for using Q-Chem.  Have a nice day.  *
