 Q-Chem 5.4, Q-Chem, Inc., Pleasanton, CA (2021)
 Q-Chem 5.4.0 for Intel X86 EM64T Linux

User input:
--------------------------------------------------------------
$molecule
0 1
C	-0.343666	-0.485421	0.013103
C	0.088134	0.262479	1.112503
C	0.780134	1.460979	0.789803
H	-0.096266	-0.056921	2.149203
C	0.890434	1.652079	-0.599397
S	0.127534	0.330679	-1.473697
C	1.324034	2.402979	1.827703
H	1.111234	2.034379	2.849803
H	0.878334	3.415779	1.739303
H	2.424034	2.523379	1.739303
C	-0.343666	-1.926121	0.013103
H	0.591534	-1.925821	0.553203
H	-0.753266	-2.629921	0.722503
H	0.129934	-2.445021	-0.807097
H	1.365134	2.474079	-1.148497
$end

$rem
JOBTYPE		SP
EXCHANGE	HF
CORRELATION	pRIMP2
BASIS		cc-pvtz
METHOD		rimp2
AUX_BASIS	rimp2-cc-pvtz
SOLVENT_METHOD	PCM
PURECART	11111
SYMMETRY	false
MEM_TOTAL	110000
SCF_CONVERGENCE = 6
THRESH=10
$end

$solvent
dielectric 4.90
$end
--------------------------------------------------------------

   10    -629.4041539696      5.65e-07  Convergence criterion met
 Total energy in the final basis set =     -629.4041539696
        RIMP2         total energy =      -630.5849436637 a.u.
 Total job time:  159.68s(wall), 158.88s(cpu)
        *  Thank you very much for using Q-Chem.  Have a nice day.  *
 Q-Chem 5.4, Q-Chem, Inc., Pleasanton, CA (2021)
 Q-Chem 5.4.0 for Intel X86 EM64T Linux

User input:
--------------------------------------------------------------
$molecule
0 1
C	-0.343666	-0.485421	0.013103
C	0.088134	0.262479	1.112503
C	0.780134	1.460979	0.789803
H	-0.096266	-0.056921	2.149203
C	0.890434	1.652079	-0.599397
S	0.127534	0.330679	-1.473697
C	1.324034	2.402979	1.827703
H	1.111234	2.034379	2.849803
H	0.878334	3.415779	1.739303
H	2.424034	2.523379	1.739303
C	-0.343666	-1.926121	0.013103
H	0.591534	-1.925821	0.553203
H	-0.753266	-2.629921	0.722503
H	0.129934	-2.445021	-0.807097
H	1.365134	2.474079	-1.148497
$end

$rem
JOBTYPE		SP
EXCHANGE	HF
CORRELATION	pRIMP2
BASIS		cc-pvtz
METHOD		rimp2
AUX_BASIS	rimp2-cc-pvtz
SOLVENT_METHOD	PCM
PURECART	11111
SYMMETRY	false
MEM_TOTAL	110000
SCF_CONVERGENCE = 6
THRESH=10
$end

$solvent
dielectric 4.90
$end
--------------------------------------------------------------

             Standard Nuclear Orientation (Angstroms)
    I     Atom           X                Y                Z
 ----------------------------------------------------------------
    1      C      -0.3436660000    -0.4854210000     0.0131030000
    2      C       0.0881340000     0.2624790000     1.1125030000
    3      C       0.7801340000     1.4609790000     0.7898030000
    4      H      -0.0962660000    -0.0569210000     2.1492030000
    5      C       0.8904340000     1.6520790000    -0.5993970000
    6      S       0.1275340000     0.3306790000    -1.4736970000
    7      C       1.3240340000     2.4029790000     1.8277030000
    8      H       1.1112340000     2.0343790000     2.8498030000
    9      H       0.8783340000     3.4157790000     1.7393030000
   10      H       2.4240340000     2.5233790000     1.7393030000
   11      C      -0.3436660000    -1.9261210000     0.0131030000
   12      H       0.5915340000    -1.9258210000     0.5532030000
   13      H      -0.7532660000    -2.6299210000     0.7225030000
   14      H       0.1299340000    -2.4450210000    -0.8070970000
   15      H       1.3651340000     2.4740790000    -1.1484970000
 ----------------------------------------------------------------

   10    -629.4041539696      5.65e-07  Convergence criterion met
 Total energy in the final basis set =     -629.4041539696
        RIMP2         total energy =      -630.5849436637 a.u.

                    Orbital Energies (a.u.)
 --------------------------------------------------------------

 Alpha MOs
 -- Occupied --
-91.9794 -11.2790 -11.2541 -11.2479 -11.2271 -11.2264 -11.2174  -8.9791
 -6.6600  -6.6595  -6.6589  -1.1640  -1.0557  -0.9978  -0.9388  -0.8823
 -0.7438  -0.7220  -0.6476  -0.5887  -0.5750  -0.5682  -0.5565  -0.5444
 -0.5088  -0.4850  -0.4650  -0.4554  -0.3364  -0.2894

          Ground-State Mulliken Net Atomic Charges

     Atom                 Charge (a.u.)
  ----------------------------------------
      1 C                     0.024859
      2 C                    -0.262741
      3 C                     0.037384
      4 H                     0.174180
      5 C                    -0.267530
      6 S                     0.008472
      7 C                    -0.271021
      8 H                     0.101519
      9 H                     0.107554
     10 H                     0.105949
     11 C                    -0.387639
     12 H                     0.149867
     13 H                     0.148946
     14 H                     0.137088
     15 H                     0.193114
  ----------------------------------------
  Sum of atomic charges =     0.000000

                    Cartesian Multipole Moments
 -----------------------------------------------------------------
    Charge (ESU x 10^10)
                -0.0000
    Dipole Moment (Debye)
         X       1.2920      Y      -0.4670      Z       1.7616
       Tot       2.2340
    Quadrupole Moments (Debye-Ang)
        XX     -52.6491     XY       2.6705     YY     -44.6388
        XZ      -0.1599     YZ      -0.6212     ZZ     -48.3831

 Total job time:  158.96s(wall), 157.00s(cpu)
        *  Thank you very much for using Q-Chem.  Have a nice day.  *
