 Q-Chem 5.4, Q-Chem, Inc., Pleasanton, CA (2021)
 Q-Chem 5.4.0 for Intel X86 EM64T Linux

User input:
--------------------------------------------------------------
$molecule
0 1
C	-0.172016	-0.553191	0.018379
C	0.051484	0.281009	1.117779
C	0.409684	1.617709	0.795079
H	-0.043916	-0.075291	2.154479
C	0.466884	1.830809	-0.594121
S	0.071884	0.357109	-1.468421
C	0.691284	2.668409	1.832979
H	0.581084	2.257309	2.855079
H	-0.001316	3.531409	1.744579
H	1.722584	3.069409	1.744579
C	-0.172016	-1.993891	0.018379
H	-0.866116	-1.993591	-0.809021
H	0.455584	-2.697691	-0.508121
H	-0.897516	-2.512791	0.627179
H	0.712584	2.747709	-1.143221
$end

$rem
JOBTYPE		SP
EXCHANGE	HF
CORRELATION	pRIMP2
BASIS		cc-pvtz
METHOD		rimp2
AUX_BASIS	rimp2-cc-pvtz
SOLVENT_METHOD	PCM
PURECART	11111
SYMMETRY	false
MEM_TOTAL	110000
SCF_CONVERGENCE = 6
THRESH=10
$end

$solvent
dielectric 4.90
$end
--------------------------------------------------------------

             Standard Nuclear Orientation (Angstroms)
    I     Atom           X                Y                Z
 ----------------------------------------------------------------
    1      C      -0.1720160000    -0.5531910000     0.0183790000
    2      C       0.0514840000     0.2810090000     1.1177790000
    3      C       0.4096840000     1.6177090000     0.7950790000
    4      H      -0.0439160000    -0.0752910000     2.1544790000
    5      C       0.4668840000     1.8308090000    -0.5941210000
    6      S       0.0718840000     0.3571090000    -1.4684210000
    7      C       0.6912840000     2.6684090000     1.8329790000
    8      H       0.5810840000     2.2573090000     2.8550790000
    9      H      -0.0013160000     3.5314090000     1.7445790000
   10      H       1.7225840000     3.0694090000     1.7445790000
   11      C      -0.1720160000    -1.9938910000     0.0183790000
   12      H      -0.8661160000    -1.9935910000    -0.8090210000
   13      H       0.4555840000    -2.6976910000    -0.5081210000
   14      H      -0.8975160000    -2.5127910000     0.6271790000
   15      H       0.7125840000     2.7477090000    -1.1432210000
 ----------------------------------------------------------------

   10    -629.4167516926      5.52e-07  Convergence criterion met
 Total energy in the final basis set =     -629.4167516926
        RIMP2         total energy =      -630.5949230263 a.u.

                    Orbital Energies (a.u.)
 --------------------------------------------------------------

 Alpha MOs
 -- Occupied --
-91.9791 -11.2761 -11.2569 -11.2472 -11.2289 -11.2268 -11.2167  -8.9790
 -6.6600  -6.6595  -6.6588  -1.1610  -1.0549  -0.9959  -0.9452  -0.8822
 -0.7469  -0.7190  -0.6470  -0.5903  -0.5753  -0.5692  -0.5511  -0.5470
 -0.5103  -0.4848  -0.4639  -0.4500  -0.3385  -0.2973

          Ground-State Mulliken Net Atomic Charges

     Atom                 Charge (a.u.)
  ----------------------------------------
      1 C                     0.021796
      2 C                    -0.251354
      3 C                     0.031277
      4 H                     0.180789
      5 C                    -0.251865
      6 S                    -0.005220
      7 C                    -0.273218
      8 H                     0.101590
      9 H                     0.106916
     10 H                     0.106891
     11 C                    -0.363438
     12 H                     0.118239
     13 H                     0.147324
     14 H                     0.135975
     15 H                     0.194297
  ----------------------------------------
  Sum of atomic charges =     0.000000

                    Cartesian Multipole Moments
 -----------------------------------------------------------------
    Charge (ESU x 10^10)
                -0.0000
    Dipole Moment (Debye)
         X      -0.0475      Y      -0.1267      Z       1.0004
       Tot       1.0095
    Quadrupole Moments (Debye-Ang)
        XX     -53.3091     XY       3.0988     YY     -42.6821
        XZ      -0.2193     YZ       1.2700     ZZ     -48.6876

 Total job time:  155.84s(wall), 154.37s(cpu)
        *  Thank you very much for using Q-Chem.  Have a nice day.  *
