 Q-Chem 5.4, Q-Chem, Inc., Pleasanton, CA (2021)
 Q-Chem 5.4.0 for Intel X86 EM64T Linux

User input:
--------------------------------------------------------------
$molecule
0 1
C	-0.063635	-0.573727	0.016960
C	0.011665	0.286573	1.116360
C	0.132265	1.665273	0.793660
H	-0.020435	-0.080827	2.153060
C	0.151565	1.885073	-0.595540
S	0.018565	0.365073	-1.469840
C	0.227165	2.748873	1.831560
H	0.190065	2.324773	2.853660
H	-0.604835	3.478373	1.743160
H	1.173165	3.322873	1.743160
C	-0.063635	-2.014427	0.016960
H	0.871765	-2.014627	-0.522940
H	-0.473135	-2.718227	-0.692540
H	0.409965	-2.533327	0.837160
H	0.234265	2.830673	-1.144640
$end

$rem
JOBTYPE		SP
EXCHANGE	HF
CORRELATION	pRIMP2
BASIS		cc-pvtz
METHOD		rimp2
AUX_BASIS	rimp2-cc-pvtz
SOLVENT_METHOD	PCM
PURECART	11111
SYMMETRY	false
MEM_TOTAL	110000
SCF_CONVERGENCE = 6
THRESH=10
$end

$solvent
dielectric 4.90
$end
--------------------------------------------------------------

             Standard Nuclear Orientation (Angstroms)
    I     Atom           X                Y                Z
 ----------------------------------------------------------------
    1      C      -0.0636350000    -0.5737270000     0.0169600000
    2      C       0.0116650000     0.2865730000     1.1163600000
    3      C       0.1322650000     1.6652730000     0.7936600000
    4      H      -0.0204350000    -0.0808270000     2.1530600000
    5      C       0.1515650000     1.8850730000    -0.5955400000
    6      S       0.0185650000     0.3650730000    -1.4698400000
    7      C       0.2271650000     2.7488730000     1.8315600000
    8      H       0.1900650000     2.3247730000     2.8536600000
    9      H      -0.6048350000     3.4783730000     1.7431600000
   10      H       1.1731650000     3.3228730000     1.7431600000
   11      C      -0.0636350000    -2.0144270000     0.0169600000
   12      H       0.8717650000    -2.0146270000    -0.5229400000
   13      H      -0.4731350000    -2.7182270000    -0.6925400000
   14      H       0.4099650000    -2.5333270000     0.8371600000
   15      H       0.2342650000     2.8306730000    -1.1446400000
 ----------------------------------------------------------------

   10    -629.4245038605      6.68e-07  Convergence criterion met
 Total energy in the final basis set =     -629.4245038605
        RIMP2         total energy =      -630.5999621477 a.u.

                    Orbital Energies (a.u.)
 --------------------------------------------------------------

 Alpha MOs
 -- Occupied --
-91.9774 -11.2835 -11.2515 -11.2468 -11.2265 -11.2255 -11.2209  -8.9774
 -6.6584  -6.6579  -6.6572  -1.1607  -1.0562  -0.9964  -0.9438  -0.8821
 -0.7455  -0.7185  -0.6477  -0.5906  -0.5764  -0.5679  -0.5502  -0.5477
 -0.5076  -0.4922  -0.4656  -0.4540  -0.3393  -0.2920

          Ground-State Mulliken Net Atomic Charges

     Atom                 Charge (a.u.)
  ----------------------------------------
      1 C                     0.060744
      2 C                    -0.299418
      3 C                     0.047977
      4 H                     0.180692
      5 C                    -0.270288
      6 S                    -0.007371
      7 C                    -0.273389
      8 H                     0.101312
      9 H                     0.107347
     10 H                     0.107296
     11 C                    -0.375121
     12 H                     0.133615
     13 H                     0.155059
     14 H                     0.138231
     15 H                     0.193314
  ----------------------------------------
  Sum of atomic charges =     0.000000

                    Cartesian Multipole Moments
 -----------------------------------------------------------------
    Charge (ESU x 10^10)
                -0.0000
    Dipole Moment (Debye)
         X       0.7270      Y      -0.5461      Z       1.1014
       Tot       1.4282
    Quadrupole Moments (Debye-Ang)
        XX     -54.2559     XY      -0.4899     YY     -41.8339
        XZ       0.3222     YZ       1.1548     ZZ     -48.6793

 Total job time:  158.56s(wall), 157.34s(cpu)
        *  Thank you very much for using Q-Chem.  Have a nice day.  *
