 Q-Chem 5.4, Q-Chem, Inc., Pleasanton, CA (2021)
 Q-Chem 5.4.0 for Intel X86 EM64T Linux

User input:
--------------------------------------------------------------
$molecule
0 1
C	-0.440797	-0.417594	0.016151
C	0.114303	0.243906	1.115551
C	1.003903	1.304106	0.792851
H	-0.122697	-0.038594	2.152251
C	1.145803	1.473106	-0.596349
S	0.165003	0.304306	-1.470649
C	1.703103	2.137306	1.830751
H	1.429503	1.811306	2.852851
H	1.440103	3.212106	1.742351
H	2.807303	2.064906	1.742351
C	-0.440797	-1.858294	0.016151
H	0.574103	-1.858494	-0.353149
H	-0.720897	-2.562094	-0.753649
H	-0.116897	-2.377194	0.906151
H	1.755903	2.200206	-1.145449
$end

$rem
JOBTYPE		SP
EXCHANGE	HF
CORRELATION	pRIMP2
BASIS		cc-pvtz
METHOD		rimp2
AUX_BASIS	rimp2-cc-pvtz
SOLVENT_METHOD	PCM
PURECART	11111
SYMMETRY	false
MEM_TOTAL	110000
SCF_CONVERGENCE = 6
THRESH=10
$end

$solvent
dielectric 4.90
$end
--------------------------------------------------------------

             Standard Nuclear Orientation (Angstroms)
    I     Atom           X                Y                Z
 ----------------------------------------------------------------
    1      C      -0.4407970000    -0.4175940000     0.0161510000
    2      C       0.1143030000     0.2439060000     1.1155510000
    3      C       1.0039030000     1.3041060000     0.7928510000
    4      H      -0.1226970000    -0.0385940000     2.1522510000
    5      C       1.1458030000     1.4731060000    -0.5963490000
    6      S       0.1650030000     0.3043060000    -1.4706490000
    7      C       1.7031030000     2.1373060000     1.8307510000
    8      H       1.4295030000     1.8113060000     2.8528510000
    9      H       1.4401030000     3.2121060000     1.7423510000
   10      H       2.8073030000     2.0649060000     1.7423510000
   11      C      -0.4407970000    -1.8582940000     0.0161510000
   12      H       0.5741030000    -1.8584940000    -0.3531490000
   13      H      -0.7208970000    -2.5620940000    -0.7536490000
   14      H      -0.1168970000    -2.3771940000     0.9061510000
   15      H       1.7559030000     2.2002060000    -1.1454490000
 ----------------------------------------------------------------

   10    -629.3940794475      6.24e-07  Convergence criterion met
 Total energy in the final basis set =     -629.3940794475
        RIMP2         total energy =      -630.5764960862 a.u.

                    Orbital Energies (a.u.)
 --------------------------------------------------------------

 Alpha MOs
 -- Occupied --
-91.9734 -11.2749 -11.2611 -11.2485 -11.2330 -11.2277 -11.2181  -8.9743
 -6.6552  -6.6546  -6.6540  -1.1677  -1.0574  -0.9959  -0.9410  -0.8809
 -0.7479  -0.7228  -0.6451  -0.5883  -0.5828  -0.5664  -0.5512  -0.5469
 -0.5087  -0.4947  -0.4608  -0.4480  -0.3402  -0.2890

          Ground-State Mulliken Net Atomic Charges

     Atom                 Charge (a.u.)
  ----------------------------------------
      1 C                     0.029028
      2 C                    -0.285508
      3 C                     0.046104
      4 H                     0.178622
      5 C                    -0.251023
      6 S                    -0.006419
      7 C                    -0.269403
      8 H                     0.101722
      9 H                     0.107976
     10 H                     0.106395
     11 C                    -0.368476
     12 H                     0.140544
     13 H                     0.144984
     14 H                     0.132040
     15 H                     0.193414
  ----------------------------------------
  Sum of atomic charges =     0.000000

                    Cartesian Multipole Moments
 -----------------------------------------------------------------
    Charge (ESU x 10^10)
                -0.0000
    Dipole Moment (Debye)
         X       1.6943      Y      -0.3751      Z       1.3836
       Tot       2.2194
    Quadrupole Moments (Debye-Ang)
        XX     -51.4976     XY       3.4415     YY     -46.0578
        XZ       0.3291     YZ       0.6999     ZZ     -48.4258

 Total job time:  161.53s(wall), 159.85s(cpu)
        *  Thank you very much for using Q-Chem.  Have a nice day.  *
