 Q-Chem 5.4, Q-Chem, Inc., Pleasanton, CA (2021)
 Q-Chem 5.4.0 for Intel X86 EM64T Linux

User input:
--------------------------------------------------------------
$molecule
0 1
C	0.000556	-0.576312	0.019883
C	0.000556	0.287288	1.119283
C	0.000656	1.671188	0.796583
H	0.000556	-0.081512	2.155983
C	0.000656	1.891888	-0.592617
S	0.000556	0.366088	-1.466917
C	0.000656	2.758988	1.834483
H	0.000656	2.333288	2.856583
H	-0.891744	3.413288	1.746083
H	0.893056	3.413188	1.746083
C	0.000556	-2.017012	0.019883
H	0.000656	-2.016712	-1.060117
H	0.819756	-2.720812	0.019983
H	-0.946544	-2.535912	0.019883
H	0.000656	2.841088	-1.141717
$end

$rem
JOBTYPE		SP
EXCHANGE	HF
CORRELATION	pRIMP2
BASIS		cc-pvtz
METHOD		rimp2
AUX_BASIS	rimp2-cc-pvtz
SOLVENT_METHOD	PCM
PURECART	11111
SYMMETRY	false
MEM_TOTAL	110000
SCF_CONVERGENCE = 6
THRESH=10
$end

$solvent
dielectric 4.90
$end
--------------------------------------------------------------

   10    -629.4205932618      5.44e-07  Convergence criterion met
 Total energy in the final basis set =     -629.4205932618
        RIMP2         total energy =      -630.5984414993 a.u.
 Total job time:  159.82s(wall), 157.17s(cpu)
        *  Thank you very much for using Q-Chem.  Have a nice day.  *
 Q-Chem 5.4, Q-Chem, Inc., Pleasanton, CA (2021)
 Q-Chem 5.4.0 for Intel X86 EM64T Linux

User input:
--------------------------------------------------------------
$molecule
0 1
C	0.000556	-0.576312	0.019883
C	0.000556	0.287288	1.119283
C	0.000656	1.671188	0.796583
H	0.000556	-0.081512	2.155983
C	0.000656	1.891888	-0.592617
S	0.000556	0.366088	-1.466917
C	0.000656	2.758988	1.834483
H	0.000656	2.333288	2.856583
H	-0.891744	3.413288	1.746083
H	0.893056	3.413188	1.746083
C	0.000556	-2.017012	0.019883
H	0.000656	-2.016712	-1.060117
H	0.819756	-2.720812	0.019983
H	-0.946544	-2.535912	0.019883
H	0.000656	2.841088	-1.141717
$end

$rem
JOBTYPE		SP
EXCHANGE	HF
CORRELATION	pRIMP2
BASIS		cc-pvtz
METHOD		rimp2
AUX_BASIS	rimp2-cc-pvtz
SOLVENT_METHOD	PCM
PURECART	11111
SYMMETRY	false
MEM_TOTAL	110000
SCF_CONVERGENCE = 6
THRESH=10
$end

$solvent
dielectric 4.90
$end
--------------------------------------------------------------

             Standard Nuclear Orientation (Angstroms)
    I     Atom           X                Y                Z
 ----------------------------------------------------------------
    1      C       0.0005560000    -0.5763120000     0.0198830000
    2      C       0.0005560000     0.2872880000     1.1192830000
    3      C       0.0006560000     1.6711880000     0.7965830000
    4      H       0.0005560000    -0.0815120000     2.1559830000
    5      C       0.0006560000     1.8918880000    -0.5926170000
    6      S       0.0005560000     0.3660880000    -1.4669170000
    7      C       0.0006560000     2.7589880000     1.8344830000
    8      H       0.0006560000     2.3332880000     2.8565830000
    9      H      -0.8917440000     3.4132880000     1.7460830000
   10      H       0.8930560000     3.4131880000     1.7460830000
   11      C       0.0005560000    -2.0170120000     0.0198830000
   12      H       0.0006560000    -2.0167120000    -1.0601170000
   13      H       0.8197560000    -2.7208120000     0.0199830000
   14      H      -0.9465440000    -2.5359120000     0.0198830000
   15      H       0.0006560000     2.8410880000    -1.1417170000
 ----------------------------------------------------------------

   10    -629.4205932618      5.44e-07  Convergence criterion met
 Total energy in the final basis set =     -629.4205932618
        RIMP2         total energy =      -630.5984414993 a.u.

                    Orbital Energies (a.u.)
 --------------------------------------------------------------

 Alpha MOs
 -- Occupied --
-91.9808 -11.2748 -11.2578 -11.2471 -11.2291 -11.2268 -11.2160  -8.9806
 -6.6615  -6.6610  -6.6604  -1.1609  -1.0551  -0.9953  -0.9464  -0.8817
 -0.7480  -0.7185  -0.6482  -0.5915  -0.5754  -0.5659  -0.5536  -0.5474
 -0.5089  -0.4859  -0.4650  -0.4438  -0.3384  -0.3042

          Ground-State Mulliken Net Atomic Charges

     Atom                 Charge (a.u.)
  ----------------------------------------
      1 C                     0.059923
      2 C                    -0.263282
      3 C                     0.039920
      4 H                     0.180142
      5 C                    -0.260495
      6 S                    -0.002800
      7 C                    -0.273356
      8 H                     0.101934
      9 H                     0.106832
     10 H                     0.106840
     11 C                    -0.371479
     12 H                     0.112431
     13 H                     0.142637
     14 H                     0.125276
     15 H                     0.195477
  ----------------------------------------
  Sum of atomic charges =     0.000000

                    Cartesian Multipole Moments
 -----------------------------------------------------------------
    Charge (ESU x 10^10)
                -0.0000
    Dipole Moment (Debye)
         X      -0.0176      Y       0.0391      Z       0.8455
       Tot       0.8465
    Quadrupole Moments (Debye-Ang)
        XX     -53.6870     XY      -0.1025     YY     -42.1851
        XZ      -0.0149     YZ       1.4946     ZZ     -48.8420

 Total job time:  156.70s(wall), 155.14s(cpu)
        *  Thank you very much for using Q-Chem.  Have a nice day.  *
