 Q-Chem 5.4, Q-Chem, Inc., Pleasanton, CA (2021)
 Q-Chem 5.4.0 for Intel X86 EM64T Linux

User input:
--------------------------------------------------------------
$molecule
0 1
C	-0.117237	-0.566007	0.010180
C	0.032763	0.284493	1.109580
C	0.273063	1.647393	0.786880
H	-0.031337	-0.078707	2.146280
C	0.311463	1.864693	-0.602320
S	0.046463	0.362093	-1.476620
C	0.461963	2.718593	1.824780
H	0.388063	2.299393	2.846880
H	-0.303237	3.517893	1.736380
H	1.454463	3.207893	1.736380
C	-0.117237	-2.006707	0.010180
H	-0.117337	-2.006907	1.090180
H	0.701963	-2.710507	0.010280
H	-1.064337	-2.525607	0.010180
H	0.476263	2.799393	-1.151420
$end

$rem
JOBTYPE		SP
EXCHANGE	HF
CORRELATION	pRIMP2
BASIS		cc-pvtz
METHOD		rimp2
AUX_BASIS	rimp2-cc-pvtz
SOLVENT_METHOD	PCM
PURECART	11111
SYMMETRY	false
MEM_TOTAL	110000
SCF_CONVERGENCE = 6
THRESH=10
$end

$solvent
dielectric 4.90
$end
--------------------------------------------------------------

             Standard Nuclear Orientation (Angstroms)
    I     Atom           X                Y                Z
 ----------------------------------------------------------------
    1      C      -0.1172370000    -0.5660070000     0.0101800000
    2      C       0.0327630000     0.2844930000     1.1095800000
    3      C       0.2730630000     1.6473930000     0.7868800000
    4      H      -0.0313370000    -0.0787070000     2.1462800000
    5      C       0.3114630000     1.8646930000    -0.6023200000
    6      S       0.0464630000     0.3620930000    -1.4766200000
    7      C       0.4619630000     2.7185930000     1.8247800000
    8      H       0.3880630000     2.2993930000     2.8468800000
    9      H      -0.3032370000     3.5178930000     1.7363800000
   10      H       1.4544630000     3.2078930000     1.7363800000
   11      C      -0.1172370000    -2.0067070000     0.0101800000
   12      H      -0.1173370000    -2.0069070000     1.0901800000
   13      H       0.7019630000    -2.7105070000     0.0102800000
   14      H      -1.0643370000    -2.5256070000     0.0101800000
   15      H       0.4762630000     2.7993930000    -1.1514200000
 ----------------------------------------------------------------

   10    -629.4226614880      4.91e-07  Convergence criterion met
 Total energy in the final basis set =     -629.4226614880
        RIMP2         total energy =      -630.6010567742 a.u.

                    Orbital Energies (a.u.)
 --------------------------------------------------------------

 Alpha MOs
 -- Occupied --
-91.9747 -11.2765 -11.2582 -11.2470 -11.2350 -11.2275 -11.2158  -8.9749
 -6.6558  -6.6553  -6.6547  -1.1613  -1.0538  -0.9997  -0.9395  -0.8845
 -0.7424  -0.7246  -0.6488  -0.5910  -0.5781  -0.5672  -0.5589  -0.5418
 -0.5110  -0.4837  -0.4679  -0.4367  -0.3379  -0.3045

          Ground-State Mulliken Net Atomic Charges

     Atom                 Charge (a.u.)
  ----------------------------------------
      1 C                     0.058844
      2 C                    -0.269992
      3 C                     0.032897
      4 H                     0.177265
      5 C                    -0.249866
      6 S                    -0.007532
      7 C                    -0.273297
      8 H                     0.101090
      9 H                     0.107099
     10 H                     0.107288
     11 C                    -0.367036
     12 H                     0.119338
     13 H                     0.143111
     14 H                     0.127426
     15 H                     0.193363
  ----------------------------------------
  Sum of atomic charges =     0.000000

                    Cartesian Multipole Moments
 -----------------------------------------------------------------
    Charge (ESU x 10^10)
                -0.0000
    Dipole Moment (Debye)
         X       0.2526      Y      -0.0284      Z       2.1564
       Tot       2.1713
    Quadrupole Moments (Debye-Ang)
        XX     -53.4407     XY       1.3971     YY     -42.4773
        XZ      -0.0327     YZ      -1.0986     ZZ     -48.9521

 Total job time:  157.33s(wall), 155.09s(cpu)
        *  Thank you very much for using Q-Chem.  Have a nice day.  *
