 Q-Chem 5.4, Q-Chem, Inc., Pleasanton, CA (2021)
 Q-Chem 5.4.0 for Intel X86 EM64T Linux

User input:
--------------------------------------------------------------
$molecule
0 1
C	-0.591960	-0.237127	0.016960
C	0.155940	0.194673	1.116360
C	1.354440	0.886573	0.793660
H	-0.163460	0.010273	2.153060
C	1.545540	0.996873	-0.595540
S	0.224240	0.234073	-1.469840
C	2.296540	1.430473	1.831560
H	1.927840	1.217573	2.853660
H	2.416940	2.530373	1.743160
H	3.309340	0.984673	1.743160
C	-0.591960	-1.677827	0.016960
H	0.343440	-1.678027	-0.522940
H	-1.001460	-2.381627	-0.692540
H	-0.118360	-2.196727	0.837160
H	2.367640	1.471473	-1.144640
$end

$rem
JOBTYPE		SP
EXCHANGE	HF
CORRELATION	pRIMP2
BASIS		cc-pvtz
METHOD		rimp2
AUX_BASIS	rimp2-cc-pvtz
SOLVENT_METHOD	PCM
PURECART	11111
SYMMETRY	false
MEM_TOTAL	110000
SCF_CONVERGENCE = 6
THRESH=10
$end

$solvent
dielectric 4.90
$end
--------------------------------------------------------------

             Standard Nuclear Orientation (Angstroms)
    I     Atom           X                Y                Z
 ----------------------------------------------------------------
    1      C      -0.5919600000    -0.2371270000     0.0169600000
    2      C       0.1559400000     0.1946730000     1.1163600000
    3      C       1.3544400000     0.8865730000     0.7936600000
    4      H      -0.1634600000     0.0102730000     2.1530600000
    5      C       1.5455400000     0.9968730000    -0.5955400000
    6      S       0.2242400000     0.2340730000    -1.4698400000
    7      C       2.2965400000     1.4304730000     1.8315600000
    8      H       1.9278400000     1.2175730000     2.8536600000
    9      H       2.4169400000     2.5303730000     1.7431600000
   10      H       3.3093400000     0.9846730000     1.7431600000
   11      C      -0.5919600000    -1.6778270000     0.0169600000
   12      H       0.3434400000    -1.6780270000    -0.5229400000
   13      H      -1.0014600000    -2.3816270000    -0.6925400000
   14      H      -0.1183600000    -2.1967270000     0.8371600000
   15      H       2.3676400000     1.4714730000    -1.1446400000
 ----------------------------------------------------------------

   10    -629.3440567352      8.01e-07  Convergence criterion met
 Total energy in the final basis set =     -629.3440567352
        RIMP2         total energy =      -630.5354136814 a.u.

                    Orbital Energies (a.u.)
 --------------------------------------------------------------

 Alpha MOs
 -- Occupied --
-91.9696 -11.2804 -11.2553 -11.2510 -11.2496 -11.2295 -11.2105  -8.9716
 -6.6523  -6.6515  -6.6512  -1.1790  -1.0603  -0.9973  -0.9405  -0.8786
 -0.7549  -0.7301  -0.6441  -0.5906  -0.5868  -0.5660  -0.5537  -0.5462
 -0.5123  -0.4928  -0.4615  -0.4283  -0.3391  -0.2897

          Ground-State Mulliken Net Atomic Charges

     Atom                 Charge (a.u.)
  ----------------------------------------
      1 C                    -0.065256
      2 C                    -0.162102
      3 C                    -0.007127
      4 H                     0.186481
      5 C                    -0.196475
      6 S                    -0.003894
      7 C                    -0.267670
      8 H                     0.102393
      9 H                     0.107872
     10 H                     0.105706
     11 C                    -0.366990
     12 H                     0.120932
     13 H                     0.126298
     14 H                     0.122294
     15 H                     0.197537
  ----------------------------------------
  Sum of atomic charges =     0.000000

                    Cartesian Multipole Moments
 -----------------------------------------------------------------
    Charge (ESU x 10^10)
                -0.0000
    Dipole Moment (Debye)
         X       2.7912      Y      -0.1044      Z       1.5490
       Tot       3.1939
    Quadrupole Moments (Debye-Ang)
        XX     -48.6729     XY       3.6350     YY     -50.0734
        XZ       0.1217     YZ       0.8437     ZZ     -47.8687

 Total job time:  168.12s(wall), 165.80s(cpu)
        *  Thank you very much for using Q-Chem.  Have a nice day.  *
