 Q-Chem 5.4, Q-Chem, Inc., Pleasanton, CA (2021)
 Q-Chem 5.4.0 for Intel X86 EM64T Linux

User input:
--------------------------------------------------------------
$molecule
0 1
C	-0.063231	-0.573729	0.012353
C	0.012069	0.286571	1.111753
C	0.132669	1.665271	0.789053
H	-0.020031	-0.080829	2.148453
C	0.151969	1.885071	-0.600147
S	0.018969	0.365071	-1.474447
C	0.227569	2.748871	1.826953
H	0.190469	2.324771	2.849053
H	-0.604431	3.478371	1.738553
H	1.173569	3.322871	1.738553
C	-0.063231	-2.014429	0.012353
H	0.764069	-2.014129	0.706653
H	-0.589831	-2.718229	0.639853
H	0.545569	-2.533329	-0.713247
H	0.234669	2.830671	-1.149247
$end

$rem
JOBTYPE		SP
EXCHANGE	HF
CORRELATION	pRIMP2
BASIS		cc-pvtz
METHOD		rimp2
AUX_BASIS	rimp2-cc-pvtz
SOLVENT_METHOD	PCM
PURECART	11111
SYMMETRY	false
MEM_TOTAL	110000
SCF_CONVERGENCE = 6
THRESH=10
$end

$solvent
dielectric 4.90
$end
--------------------------------------------------------------

             Standard Nuclear Orientation (Angstroms)
    I     Atom           X                Y                Z
 ----------------------------------------------------------------
    1      C      -0.0632310000    -0.5737290000     0.0123530000
    2      C       0.0120690000     0.2865710000     1.1117530000
    3      C       0.1326690000     1.6652710000     0.7890530000
    4      H      -0.0200310000    -0.0808290000     2.1484530000
    5      C       0.1519690000     1.8850710000    -0.6001470000
    6      S       0.0189690000     0.3650710000    -1.4744470000
    7      C       0.2275690000     2.7488710000     1.8269530000
    8      H       0.1904690000     2.3247710000     2.8490530000
    9      H      -0.6044310000     3.4783710000     1.7385530000
   10      H       1.1735690000     3.3228710000     1.7385530000
   11      C      -0.0632310000    -2.0144290000     0.0123530000
   12      H       0.7640690000    -2.0141290000     0.7066530000
   13      H      -0.5898310000    -2.7182290000     0.6398530000
   14      H       0.5455690000    -2.5333290000    -0.7132470000
   15      H       0.2346690000     2.8306710000    -1.1492470000
 ----------------------------------------------------------------

   10    -629.4233540633      5.98e-07  Convergence criterion met
 Total energy in the final basis set =     -629.4233540633
        RIMP2         total energy =      -630.6002063440 a.u.

                    Orbital Energies (a.u.)
 --------------------------------------------------------------

 Alpha MOs
 -- Occupied --
-91.9782 -11.2827 -11.2512 -11.2472 -11.2268 -11.2263 -11.2192  -8.9779
 -6.6589  -6.6583  -6.6578  -1.1604  -1.0551  -0.9985  -0.9404  -0.8834
 -0.7425  -0.7209  -0.6495  -0.5890  -0.5739  -0.5668  -0.5592  -0.5437
 -0.5083  -0.4893  -0.4669  -0.4507  -0.3372  -0.2936

          Ground-State Mulliken Net Atomic Charges

     Atom                 Charge (a.u.)
  ----------------------------------------
      1 C                     0.067615
      2 C                    -0.284805
      3 C                     0.038739
      4 H                     0.175802
      5 C                    -0.269654
      6 S                    -0.002125
      7 C                    -0.274700
      8 H                     0.101194
      9 H                     0.107285
     10 H                     0.107127
     11 C                    -0.386265
     12 H                     0.138174
     13 H                     0.152799
     14 H                     0.136233
     15 H                     0.192581
  ----------------------------------------
  Sum of atomic charges =     0.000000

                    Cartesian Multipole Moments
 -----------------------------------------------------------------
    Charge (ESU x 10^10)
                -0.0000
    Dipole Moment (Debye)
         X       0.6590      Y      -0.4900      Z       1.8639
       Tot       2.0368
    Quadrupole Moments (Debye-Ang)
        XX     -54.1102     XY      -0.3886     YY     -42.1123
        XZ      -0.2653     YZ      -0.7142     ZZ     -48.6591

 Total job time:  161.27s(wall), 159.66s(cpu)
        *  Thank you very much for using Q-Chem.  Have a nice day.  *
