 Q-Chem 5.4, Q-Chem, Inc., Pleasanton, CA (2021)
 Q-Chem 5.4.0 for Intel X86 EM64T Linux

User input:
--------------------------------------------------------------
$molecule
0 1
C	0.002661	-0.576312	0.010946
C	0.002661	0.287288	1.110346
C	0.002761	1.671188	0.787646
H	0.002661	-0.081512	2.147046
C	0.002761	1.891888	-0.601554
S	0.002661	0.366088	-1.475854
C	0.002761	2.758988	1.825546
H	0.002761	2.333288	2.847646
H	-0.889639	3.413288	1.737146
H	0.895161	3.413188	1.737146
C	0.002661	-2.017012	0.010946
H	-0.691639	-2.016712	0.838246
H	-0.624839	-2.720812	-0.515654
H	0.728261	-2.535912	0.619746
H	0.002761	2.841088	-1.150654
$end

$rem
JOBTYPE		SP
EXCHANGE	HF
CORRELATION	pRIMP2
BASIS		cc-pvtz
METHOD		rimp2
AUX_BASIS	rimp2-cc-pvtz
SOLVENT_METHOD	PCM
PURECART	11111
SYMMETRY	false
MEM_TOTAL	110000
SCF_CONVERGENCE = 6
THRESH=10
$end

$solvent
dielectric 4.90
$end
--------------------------------------------------------------

   10    -629.4238724711      5.67e-07  Convergence criterion met
 Total energy in the final basis set =     -629.4238724711
        RIMP2         total energy =      -630.6012296193 a.u.
 Total job time:  156.48s(wall), 155.00s(cpu)
        *  Thank you very much for using Q-Chem.  Have a nice day.  *
 Q-Chem 5.4, Q-Chem, Inc., Pleasanton, CA (2021)
 Q-Chem 5.4.0 for Intel X86 EM64T Linux

User input:
--------------------------------------------------------------
$molecule
0 1
C	0.002661	-0.576312	0.010946
C	0.002661	0.287288	1.110346
C	0.002761	1.671188	0.787646
H	0.002661	-0.081512	2.147046
C	0.002761	1.891888	-0.601554
S	0.002661	0.366088	-1.475854
C	0.002761	2.758988	1.825546
H	0.002761	2.333288	2.847646
H	-0.889639	3.413288	1.737146
H	0.895161	3.413188	1.737146
C	0.002661	-2.017012	0.010946
H	-0.691639	-2.016712	0.838246
H	-0.624839	-2.720812	-0.515654
H	0.728261	-2.535912	0.619746
H	0.002761	2.841088	-1.150654
$end

$rem
JOBTYPE		SP
EXCHANGE	HF
CORRELATION	pRIMP2
BASIS		cc-pvtz
METHOD		rimp2
AUX_BASIS	rimp2-cc-pvtz
SOLVENT_METHOD	PCM
PURECART	11111
SYMMETRY	false
MEM_TOTAL	110000
SCF_CONVERGENCE = 6
THRESH=10
$end

$solvent
dielectric 4.90
$end
--------------------------------------------------------------

             Standard Nuclear Orientation (Angstroms)
    I     Atom           X                Y                Z
 ----------------------------------------------------------------
    1      C       0.0026610000    -0.5763120000     0.0109460000
    2      C       0.0026610000     0.2872880000     1.1103460000
    3      C       0.0027610000     1.6711880000     0.7876460000
    4      H       0.0026610000    -0.0815120000     2.1470460000
    5      C       0.0027610000     1.8918880000    -0.6015540000
    6      S       0.0026610000     0.3660880000    -1.4758540000
    7      C       0.0027610000     2.7589880000     1.8255460000
    8      H       0.0027610000     2.3332880000     2.8476460000
    9      H      -0.8896390000     3.4132880000     1.7371460000
   10      H       0.8951610000     3.4131880000     1.7371460000
   11      C       0.0026610000    -2.0170120000     0.0109460000
   12      H      -0.6916390000    -2.0167120000     0.8382460000
   13      H      -0.6248390000    -2.7208120000    -0.5156540000
   14      H       0.7282610000    -2.5359120000     0.6197460000
   15      H       0.0027610000     2.8410880000    -1.1506540000
 ----------------------------------------------------------------

   10    -629.4238724711      5.67e-07  Convergence criterion met
 Total energy in the final basis set =     -629.4238724711
        RIMP2         total energy =      -630.6012296193 a.u.

                    Orbital Energies (a.u.)
 --------------------------------------------------------------

 Alpha MOs
 -- Occupied --
-91.9765 -11.2818 -11.2524 -11.2473 -11.2291 -11.2270 -11.2184  -8.9764
 -6.6573  -6.6567  -6.6562  -1.1604  -1.0548  -0.9991  -0.9398  -0.8839
 -0.7422  -0.7215  -0.6484  -0.5916  -0.5753  -0.5686  -0.5585  -0.5430
 -0.5095  -0.4875  -0.4667  -0.4459  -0.3372  -0.2963

          Ground-State Mulliken Net Atomic Charges

     Atom                 Charge (a.u.)
  ----------------------------------------
      1 C                     0.069430
      2 C                    -0.278967
      3 C                     0.035565
      4 H                     0.176913
      5 C                    -0.265467
      6 S                    -0.005466
      7 C                    -0.274805
      8 H                     0.101123
      9 H                     0.107158
     10 H                     0.107372
     11 C                    -0.387436
     12 H                     0.132444
     13 H                     0.157887
     14 H                     0.132082
     15 H                     0.192167
  ----------------------------------------
  Sum of atomic charges =     0.000000

                    Cartesian Multipole Moments
 -----------------------------------------------------------------
    Charge (ESU x 10^10)
                -0.0000
    Dipole Moment (Debye)
         X      -0.4394      Y      -0.4090      Z       1.9883
       Tot       2.0769
    Quadrupole Moments (Debye-Ang)
        XX     -53.9632     XY       1.1195     YY     -42.0485
        XZ       0.2986     YZ      -0.6827     ZZ     -48.7866

 Total job time:  156.98s(wall), 155.58s(cpu)
        *  Thank you very much for using Q-Chem.  Have a nice day.  *
