 Q-Chem 5.4, Q-Chem, Inc., Pleasanton, CA (2021)
 Q-Chem 5.4.0 for Intel X86 EM64T Linux

User input:
--------------------------------------------------------------
$molecule
0 1
C	-0.117535	-0.566010	0.010154
C	0.032465	0.284490	1.109554
C	0.272765	1.647390	0.786854
H	-0.031635	-0.078710	2.146254
C	0.311165	1.864690	-0.602346
S	0.046165	0.362090	-1.476646
C	0.461665	2.718590	1.824754
H	0.387765	2.299390	2.846854
H	-0.303535	3.517890	1.736354
H	1.454165	3.207890	1.736354
C	-0.117535	-2.006710	0.010154
H	-0.305235	-2.006410	1.073754
H	-0.924235	-2.710510	-0.132146
H	0.815165	-2.525610	0.174654
H	0.475965	2.799390	-1.151446
$end

$rem
JOBTYPE		SP
EXCHANGE	HF
CORRELATION	pRIMP2
BASIS		cc-pvtz
METHOD		rimp2
AUX_BASIS	rimp2-cc-pvtz
SOLVENT_METHOD	PCM
PURECART	11111
SYMMETRY	false
MEM_TOTAL	110000
SCF_CONVERGENCE = 6
THRESH=10
$end

$solvent
dielectric 4.90
$end
--------------------------------------------------------------

   10    -629.4235867114      4.95e-07  Convergence criterion met
 Total energy in the final basis set =     -629.4235867114
        RIMP2         total energy =      -630.6018094487 a.u.
 Total job time:  157.58s(wall), 154.88s(cpu)
        *  Thank you very much for using Q-Chem.  Have a nice day.  *
 Q-Chem 5.4, Q-Chem, Inc., Pleasanton, CA (2021)
 Q-Chem 5.4.0 for Intel X86 EM64T Linux

User input:
--------------------------------------------------------------
$molecule
0 1
C	-0.117535	-0.566010	0.010154
C	0.032465	0.284490	1.109554
C	0.272765	1.647390	0.786854
H	-0.031635	-0.078710	2.146254
C	0.311165	1.864690	-0.602346
S	0.046165	0.362090	-1.476646
C	0.461665	2.718590	1.824754
H	0.387765	2.299390	2.846854
H	-0.303535	3.517890	1.736354
H	1.454165	3.207890	1.736354
C	-0.117535	-2.006710	0.010154
H	-0.305235	-2.006410	1.073754
H	-0.924235	-2.710510	-0.132146
H	0.815165	-2.525610	0.174654
H	0.475965	2.799390	-1.151446
$end

$rem
JOBTYPE		SP
EXCHANGE	HF
CORRELATION	pRIMP2
BASIS		cc-pvtz
METHOD		rimp2
AUX_BASIS	rimp2-cc-pvtz
SOLVENT_METHOD	PCM
PURECART	11111
SYMMETRY	false
MEM_TOTAL	110000
SCF_CONVERGENCE = 6
THRESH=10
$end

$solvent
dielectric 4.90
$end
--------------------------------------------------------------

             Standard Nuclear Orientation (Angstroms)
    I     Atom           X                Y                Z
 ----------------------------------------------------------------
    1      C      -0.1175350000    -0.5660100000     0.0101540000
    2      C       0.0324650000     0.2844900000     1.1095540000
    3      C       0.2727650000     1.6473900000     0.7868540000
    4      H      -0.0316350000    -0.0787100000     2.1462540000
    5      C       0.3111650000     1.8646900000    -0.6023460000
    6      S       0.0461650000     0.3620900000    -1.4766460000
    7      C       0.4616650000     2.7185900000     1.8247540000
    8      H       0.3877650000     2.2993900000     2.8468540000
    9      H      -0.3035350000     3.5178900000     1.7363540000
   10      H       1.4541650000     3.2078900000     1.7363540000
   11      C      -0.1175350000    -2.0067100000     0.0101540000
   12      H      -0.3052350000    -2.0064100000     1.0737540000
   13      H      -0.9242350000    -2.7105100000    -0.1321460000
   14      H       0.8151650000    -2.5256100000     0.1746540000
   15      H       0.4759650000     2.7993900000    -1.1514460000
 ----------------------------------------------------------------

   10    -629.4235867114      4.95e-07  Convergence criterion met
 Total energy in the final basis set =     -629.4235867114
        RIMP2         total energy =      -630.6018094487 a.u.

                    Orbital Energies (a.u.)
 --------------------------------------------------------------

 Alpha MOs
 -- Occupied --
-91.9746 -11.2773 -11.2576 -11.2471 -11.2346 -11.2275 -11.2164  -8.9748
 -6.6557  -6.6551  -6.6546  -1.1612  -1.0540  -0.9997  -0.9395  -0.8845
 -0.7423  -0.7242  -0.6484  -0.5921  -0.5779  -0.5661  -0.5597  -0.5420
 -0.5104  -0.4854  -0.4675  -0.4371  -0.3380  -0.3038

          Ground-State Mulliken Net Atomic Charges

     Atom                 Charge (a.u.)
  ----------------------------------------
      1 C                     0.060002
      2 C                    -0.272742
      3 C                     0.034936
      4 H                     0.177343
      5 C                    -0.251876
      6 S                    -0.007687
      7 C                    -0.273016
      8 H                     0.101088
      9 H                     0.107098
     10 H                     0.107332
     11 C                    -0.370775
     12 H                     0.119186
     13 H                     0.150226
     14 H                     0.125656
     15 H                     0.193229
  ----------------------------------------
  Sum of atomic charges =     0.000000

                    Cartesian Multipole Moments
 -----------------------------------------------------------------
    Charge (ESU x 10^10)
                -0.0000
    Dipole Moment (Debye)
         X       0.1660      Y      -0.0793      Z       2.1500
       Tot       2.1578
    Quadrupole Moments (Debye-Ang)
        XX     -53.4288     XY       1.8911     YY     -42.4418
        XZ       0.0777     YZ      -1.0511     ZZ     -48.9598

 Total job time:  157.29s(wall), 155.46s(cpu)
        *  Thank you very much for using Q-Chem.  Have a nice day.  *
