 Q-Chem 5.4, Q-Chem, Inc., Pleasanton, CA (2021)
 Q-Chem 5.4.0 for Intel X86 EM64T Linux

User input:
--------------------------------------------------------------
$molecule
0 1
C	-0.235359	-0.535397	0.018590
C	0.060041	0.276103	1.117990
C	0.533341	1.576503	0.795290
H	-0.066059	-0.070397	2.154690
C	0.608841	1.783903	-0.593910
S	0.086941	0.350203	-1.468210
C	0.905441	2.598703	1.833190
H	0.759841	2.198703	2.855290
H	0.290641	3.518703	1.744790
H	1.967841	2.908303	1.744790
C	-0.235359	-1.976097	0.018590
H	0.592041	-1.975797	-0.675510
H	0.291141	-2.679897	0.646190
H	-0.844159	-2.494997	-0.706910
H	0.933541	2.675903	-1.143010
$end

$rem
JOBTYPE		SP
EXCHANGE	HF
CORRELATION	pRIMP2
BASIS		cc-pvtz
METHOD		rimp2
AUX_BASIS	rimp2-cc-pvtz
SOLVENT_METHOD	PCM
PURECART	11111
SYMMETRY	false
MEM_TOTAL	110000
SCF_CONVERGENCE = 6
THRESH=10
$end

$solvent
dielectric 4.90
$end
--------------------------------------------------------------

   10    -629.4153340306      6.79e-07  Convergence criterion met
 Total energy in the final basis set =     -629.4153340306
        RIMP2         total energy =      -630.5927529302 a.u.
 Total job time:  159.99s(wall), 156.97s(cpu)
        *  Thank you very much for using Q-Chem.  Have a nice day.  *
 Q-Chem 5.4, Q-Chem, Inc., Pleasanton, CA (2021)
 Q-Chem 5.4.0 for Intel X86 EM64T Linux

User input:
--------------------------------------------------------------
$molecule
0 1
C	-0.235359	-0.535397	0.018590
C	0.060041	0.276103	1.117990
C	0.533341	1.576503	0.795290
H	-0.066059	-0.070397	2.154690
C	0.608841	1.783903	-0.593910
S	0.086941	0.350203	-1.468210
C	0.905441	2.598703	1.833190
H	0.759841	2.198703	2.855290
H	0.290641	3.518703	1.744790
H	1.967841	2.908303	1.744790
C	-0.235359	-1.976097	0.018590
H	0.592041	-1.975797	-0.675510
H	0.291141	-2.679897	0.646190
H	-0.844159	-2.494997	-0.706910
H	0.933541	2.675903	-1.143010
$end

$rem
JOBTYPE		SP
EXCHANGE	HF
CORRELATION	pRIMP2
BASIS		cc-pvtz
METHOD		rimp2
AUX_BASIS	rimp2-cc-pvtz
SOLVENT_METHOD	PCM
PURECART	11111
SYMMETRY	false
MEM_TOTAL	110000
SCF_CONVERGENCE = 6
THRESH=10
$end

$solvent
dielectric 4.90
$end
--------------------------------------------------------------

             Standard Nuclear Orientation (Angstroms)
    I     Atom           X                Y                Z
 ----------------------------------------------------------------
    1      C      -0.2353590000    -0.5353970000     0.0185900000
    2      C       0.0600410000     0.2761030000     1.1179900000
    3      C       0.5333410000     1.5765030000     0.7952900000
    4      H      -0.0660590000    -0.0703970000     2.1546900000
    5      C       0.6088410000     1.7839030000    -0.5939100000
    6      S       0.0869410000     0.3502030000    -1.4682100000
    7      C       0.9054410000     2.5987030000     1.8331900000
    8      H       0.7598410000     2.1987030000     2.8552900000
    9      H       0.2906410000     3.5187030000     1.7447900000
   10      H       1.9678410000     2.9083030000     1.7447900000
   11      C      -0.2353590000    -1.9760970000     0.0185900000
   12      H       0.5920410000    -1.9757970000    -0.6755100000
   13      H       0.2911410000    -2.6798970000     0.6461900000
   14      H      -0.8441590000    -2.4949970000    -0.7069100000
   15      H       0.9335410000     2.6759030000    -1.1430100000
 ----------------------------------------------------------------

   10    -629.4153340306      6.79e-07  Convergence criterion met
 Total energy in the final basis set =     -629.4153340306
        RIMP2         total energy =      -630.5927529302 a.u.

                    Orbital Energies (a.u.)
 --------------------------------------------------------------

 Alpha MOs
 -- Occupied --
-91.9769 -11.2790 -11.2553 -11.2469 -11.2280 -11.2268 -11.2183  -8.9772
 -6.6582  -6.6576  -6.6570  -1.1623  -1.0562  -0.9952  -0.9445  -0.8812
 -0.7467  -0.7191  -0.6487  -0.5880  -0.5778  -0.5646  -0.5529  -0.5477
 -0.5093  -0.4896  -0.4640  -0.4514  -0.3398  -0.2934

          Ground-State Mulliken Net Atomic Charges

     Atom                 Charge (a.u.)
  ----------------------------------------
      1 C                     0.055815
      2 C                    -0.313753
      3 C                     0.058366
      4 H                     0.179355
      5 C                    -0.264839
      6 S                    -0.004232
      7 C                    -0.271596
      8 H                     0.101560
      9 H                     0.107543
     10 H                     0.106899
     11 C                    -0.372933
     12 H                     0.134005
     13 H                     0.159411
     14 H                     0.130802
     15 H                     0.193596
  ----------------------------------------
  Sum of atomic charges =     0.000000

                    Cartesian Multipole Moments
 -----------------------------------------------------------------
    Charge (ESU x 10^10)
                -0.0000
    Dipole Moment (Debye)
         X       1.0088      Y      -0.3494      Z       1.0472
       Tot       1.4955
    Quadrupole Moments (Debye-Ang)
        XX     -53.3899     XY       1.6679     YY     -43.0909
        XZ       0.4310     YZ       1.0352     ZZ     -48.6696

 Total job time:  156.68s(wall), 155.52s(cpu)
        *  Thank you very much for using Q-Chem.  Have a nice day.  *
