 Q-Chem 5.4, Q-Chem, Inc., Pleasanton, CA (2021)
 Q-Chem 5.4.0 for Intel X86 EM64T Linux

User input:
--------------------------------------------------------------
$molecule
0 1
C	0.004068	-0.576312	0.017710
C	0.004068	0.287288	1.117110
C	0.004168	1.671188	0.794410
H	0.004068	-0.081512	2.153810
C	0.004168	1.891888	-0.594790
S	0.004068	0.366088	-1.469090
C	0.004168	2.758988	1.832310
H	0.004168	2.333288	2.854410
H	-0.888232	3.413288	1.743910
H	0.896568	3.413188	1.743910
C	0.004068	-2.017012	0.017710
H	-0.823232	-2.016712	-0.676590
H	0.530668	-2.720812	-0.609790
H	-0.604732	-2.535912	0.743310
H	0.004168	2.841088	-1.143890
$end

$rem
JOBTYPE		SP
EXCHANGE	HF
CORRELATION	pRIMP2
BASIS		cc-pvtz
METHOD		rimp2
AUX_BASIS	rimp2-cc-pvtz
SOLVENT_METHOD	PCM
PURECART	11111
SYMMETRY	false
MEM_TOTAL	110000
SCF_CONVERGENCE = 6
THRESH=10
$end

$solvent
dielectric 4.90
$end
--------------------------------------------------------------

             Standard Nuclear Orientation (Angstroms)
    I     Atom           X                Y                Z
 ----------------------------------------------------------------
    1      C       0.0040680000    -0.5763120000     0.0177100000
    2      C       0.0040680000     0.2872880000     1.1171100000
    3      C       0.0041680000     1.6711880000     0.7944100000
    4      H       0.0040680000    -0.0815120000     2.1538100000
    5      C       0.0041680000     1.8918880000    -0.5947900000
    6      S       0.0040680000     0.3660880000    -1.4690900000
    7      C       0.0041680000     2.7589880000     1.8323100000
    8      H       0.0041680000     2.3332880000     2.8544100000
    9      H      -0.8882320000     3.4132880000     1.7439100000
   10      H       0.8965680000     3.4131880000     1.7439100000
   11      C       0.0040680000    -2.0170120000     0.0177100000
   12      H      -0.8232320000    -2.0167120000    -0.6765900000
   13      H       0.5306680000    -2.7208120000    -0.6097900000
   14      H      -0.6047320000    -2.5359120000     0.7433100000
   15      H       0.0041680000     2.8410880000    -1.1438900000
 ----------------------------------------------------------------

   10    -629.4235775326      6.28e-07  Convergence criterion met
 Total energy in the final basis set =     -629.4235775326
        RIMP2         total energy =      -630.5996187172 a.u.

                    Orbital Energies (a.u.)
 --------------------------------------------------------------

 Alpha MOs
 -- Occupied --
-91.9781 -11.2813 -11.2532 -11.2469 -11.2266 -11.2266 -11.2194  -8.9781
 -6.6590  -6.6585  -6.6579  -1.1605  -1.0557  -0.9962  -0.9446  -0.8821
 -0.7460  -0.7184  -0.6477  -0.5909  -0.5758  -0.5680  -0.5506  -0.5476
 -0.5082  -0.4901  -0.4651  -0.4524  -0.3391  -0.2944

          Ground-State Mulliken Net Atomic Charges

     Atom                 Charge (a.u.)
  ----------------------------------------
      1 C                     0.053518
      2 C                    -0.279842
      3 C                     0.039348
      4 H                     0.181454
      5 C                    -0.263614
      6 S                    -0.007377
      7 C                    -0.273628
      8 H                     0.101416
      9 H                     0.107114
     10 H                     0.107290
     11 C                    -0.372352
     12 H                     0.125763
     13 H                     0.150110
     14 H                     0.136968
     15 H                     0.193831
  ----------------------------------------
  Sum of atomic charges =     0.000000

                    Cartesian Multipole Moments
 -----------------------------------------------------------------
    Charge (ESU x 10^10)
                -0.0000
    Dipole Moment (Debye)
         X      -0.5394      Y      -0.3905      Z       1.0245
       Tot       1.2219
    Quadrupole Moments (Debye-Ang)
        XX     -54.1333     XY       1.0947     YY     -41.8649
        XZ      -0.3221     YZ       1.2891     ZZ     -48.7024

 Total job time:  159.25s(wall), 156.86s(cpu)
        *  Thank you very much for using Q-Chem.  Have a nice day.  *
