 Q-Chem 5.4, Q-Chem, Inc., Pleasanton, CA (2021)
 Q-Chem 5.4.0 for Intel X86 EM64T Linux

User input:
--------------------------------------------------------------
$molecule
0 1
C	-0.233940	-0.535395	0.010542
C	0.061460	0.276105	1.109942
C	0.534760	1.576505	0.787242
H	-0.064640	-0.070395	2.146642
C	0.610260	1.783905	-0.601958
S	0.088360	0.350205	-1.476258
C	0.906860	2.598705	1.825142
H	0.761260	2.198705	2.847242
H	0.292060	3.518705	1.736742
H	1.969260	2.908305	1.736742
C	-0.233940	-1.976095	0.010542
H	0.305960	-1.976295	0.945942
H	0.475560	-2.679895	-0.398958
H	-1.054140	-2.494995	0.484142
H	0.934960	2.675905	-1.151058
$end

$rem
JOBTYPE		SP
EXCHANGE	HF
CORRELATION	pRIMP2
BASIS		cc-pvtz
METHOD		rimp2
AUX_BASIS	rimp2-cc-pvtz
SOLVENT_METHOD	PCM
PURECART	11111
SYMMETRY	false
MEM_TOTAL	110000
SCF_CONVERGENCE = 6
THRESH=10
$end

$solvent
dielectric 4.90
$end
--------------------------------------------------------------

             Standard Nuclear Orientation (Angstroms)
    I     Atom           X                Y                Z
 ----------------------------------------------------------------
    1      C      -0.2339400000    -0.5353950000     0.0105420000
    2      C       0.0614600000     0.2761050000     1.1099420000
    3      C       0.5347600000     1.5765050000     0.7872420000
    4      H      -0.0646400000    -0.0703950000     2.1466420000
    5      C       0.6102600000     1.7839050000    -0.6019580000
    6      S       0.0883600000     0.3502050000    -1.4762580000
    7      C       0.9068600000     2.5987050000     1.8251420000
    8      H       0.7612600000     2.1987050000     2.8472420000
    9      H       0.2920600000     3.5187050000     1.7367420000
   10      H       1.9692600000     2.9083050000     1.7367420000
   11      C      -0.2339400000    -1.9760950000     0.0105420000
   12      H       0.3059600000    -1.9762950000     0.9459420000
   13      H       0.4755600000    -2.6798950000    -0.3989580000
   14      H      -1.0541400000    -2.4949950000     0.4841420000
   15      H       0.9349600000     2.6759050000    -1.1510580000
 ----------------------------------------------------------------

   10    -629.4136263672      5.21e-07  Convergence criterion met
 Total energy in the final basis set =     -629.4136263672
        RIMP2         total energy =      -630.5934478330 a.u.

                    Orbital Energies (a.u.)
 --------------------------------------------------------------

 Alpha MOs
 -- Occupied --
-91.9766 -11.2773 -11.2561 -11.2474 -11.2319 -11.2274 -11.2154  -8.9765
 -6.6574  -6.6568  -6.6563  -1.1621  -1.0543  -0.9993  -0.9386  -0.8838
 -0.7424  -0.7236  -0.6476  -0.5906  -0.5765  -0.5704  -0.5572  -0.5425
 -0.5115  -0.4796  -0.4682  -0.4438  -0.3362  -0.2984

          Ground-State Mulliken Net Atomic Charges

     Atom                 Charge (a.u.)
  ----------------------------------------
      1 C                     0.044659
      2 C                    -0.266343
      3 C                     0.033003
      4 H                     0.175827
      5 C                    -0.256235
      6 S                    -0.002273
      7 C                    -0.272122
      8 H                     0.101201
      9 H                     0.107225
     10 H                     0.106781
     11 C                    -0.384031
     12 H                     0.135255
     13 H                     0.156538
     14 H                     0.128262
     15 H                     0.192254
  ----------------------------------------
  Sum of atomic charges =     0.000000

                    Cartesian Multipole Moments
 -----------------------------------------------------------------
    Charge (ESU x 10^10)
                -0.0000
    Dipole Moment (Debye)
         X       0.8277      Y      -0.2040      Z       2.0676
       Tot       2.2364
    Quadrupole Moments (Debye-Ang)
        XX     -53.0821     XY       1.9375     YY     -43.4163
        XZ      -0.2847     YZ      -0.8665     ZZ     -48.7230

 Total job time:  159.90s(wall), 158.30s(cpu)
        *  Thank you very much for using Q-Chem.  Have a nice day.  *
