 Q-Chem 5.4, Q-Chem, Inc., Pleasanton, CA (2021)
 Q-Chem 5.4.0 for Intel X86 EM64T Linux

User input:
--------------------------------------------------------------
$molecule
0 1
C	-0.114254	-0.566010	0.018379
C	0.035746	0.284490	1.117779
C	0.276046	1.647390	0.795079
H	-0.028354	-0.078710	2.154479
C	0.314446	1.864690	-0.594121
S	0.049446	0.362090	-1.468421
C	0.464946	2.718590	1.832979
H	0.391046	2.299390	2.855079
H	-0.300254	3.517890	1.744579
H	1.457446	3.207890	1.744579
C	-0.114254	-2.006710	0.018379
H	-0.808354	-2.006410	-0.809021
H	0.513346	-2.710510	-0.508121
H	-0.839754	-2.525610	0.627179
H	0.479246	2.799390	-1.143221
$end

$rem
JOBTYPE		SP
EXCHANGE	HF
CORRELATION	pRIMP2
BASIS		cc-pvtz
METHOD		rimp2
AUX_BASIS	rimp2-cc-pvtz
SOLVENT_METHOD	PCM
PURECART	11111
SYMMETRY	false
MEM_TOTAL	110000
SCF_CONVERGENCE = 6
THRESH=10
$end

$solvent
dielectric 4.90
$end
--------------------------------------------------------------

             Standard Nuclear Orientation (Angstroms)
    I     Atom           X                Y                Z
 ----------------------------------------------------------------
    1      C      -0.1142540000    -0.5660100000     0.0183790000
    2      C       0.0357460000     0.2844900000     1.1177790000
    3      C       0.2760460000     1.6473900000     0.7950790000
    4      H      -0.0283540000    -0.0787100000     2.1544790000
    5      C       0.3144460000     1.8646900000    -0.5941210000
    6      S       0.0494460000     0.3620900000    -1.4684210000
    7      C       0.4649460000     2.7185900000     1.8329790000
    8      H       0.3910460000     2.2993900000     2.8550790000
    9      H      -0.3002540000     3.5178900000     1.7445790000
   10      H       1.4574460000     3.2078900000     1.7445790000
   11      C      -0.1142540000    -2.0067100000     0.0183790000
   12      H      -0.8083540000    -2.0064100000    -0.8090210000
   13      H       0.5133460000    -2.7105100000    -0.5081210000
   14      H      -0.8397540000    -2.5256100000     0.6271790000
   15      H       0.4792460000     2.7993900000    -1.1432210000
 ----------------------------------------------------------------

   10    -629.4198046871      5.70e-07  Convergence criterion met
 Total energy in the final basis set =     -629.4198046871
        RIMP2         total energy =      -630.5972076419 a.u.

                    Orbital Energies (a.u.)
 --------------------------------------------------------------

 Alpha MOs
 -- Occupied --
-91.9791 -11.2776 -11.2558 -11.2471 -11.2282 -11.2267 -11.2174  -8.9790
 -6.6599  -6.6594  -6.6588  -1.1607  -1.0551  -0.9959  -0.9452  -0.8821
 -0.7467  -0.7187  -0.6474  -0.5907  -0.5754  -0.5686  -0.5512  -0.5472
 -0.5095  -0.4863  -0.4645  -0.4502  -0.3387  -0.2973

          Ground-State Mulliken Net Atomic Charges

     Atom                 Charge (a.u.)
  ----------------------------------------
      1 C                     0.034056
      2 C                    -0.257417
      3 C                     0.031873
      4 H                     0.180950
      5 C                    -0.255022
      6 S                    -0.005788
      7 C                    -0.273593
      8 H                     0.101523
      9 H                     0.106966
     10 H                     0.107047
     11 C                    -0.365605
     12 H                     0.118646
     13 H                     0.145540
     14 H                     0.136514
     15 H                     0.194311
  ----------------------------------------
  Sum of atomic charges =     0.000000

                    Cartesian Multipole Moments
 -----------------------------------------------------------------
    Charge (ESU x 10^10)
                -0.0000
    Dipole Moment (Debye)
         X      -0.1902      Y      -0.1793      Z       0.9833
       Tot       1.0175
    Quadrupole Moments (Debye-Ang)
        XX     -53.6573     XY       2.4050     YY     -42.2903
        XZ      -0.2495     YZ       1.3228     ZZ     -48.7156

 Total job time:  158.07s(wall), 156.05s(cpu)
        *  Thank you very much for using Q-Chem.  Have a nice day.  *
