 Q-Chem 5.4, Q-Chem, Inc., Pleasanton, CA (2021)
 Q-Chem 5.4.0 for Intel X86 EM64T Linux

User input:
--------------------------------------------------------------
$molecule
0 1
C	-0.288894	-0.512746	0.010669
C	0.076106	0.269954	1.110069
C	0.661006	1.524154	0.787369
H	-0.079794	-0.064346	2.146769
C	0.754306	1.724154	-0.601831
S	0.109406	0.341354	-1.476131
C	1.120706	2.509954	1.825269
H	0.940806	2.124254	2.847369
H	0.588406	3.480154	1.736869
H	2.206006	2.725854	1.736869
C	-0.288894	-1.953446	0.010669
H	0.080406	-1.953146	1.025569
H	-1.058694	-2.657246	0.290769
H	0.601106	-2.472346	-0.313231
H	1.155406	2.584454	-1.150931
$end

$rem
JOBTYPE		SP
EXCHANGE	HF
CORRELATION	pRIMP2
BASIS		cc-pvtz
METHOD		rimp2
AUX_BASIS	rimp2-cc-pvtz
SOLVENT_METHOD	PCM
PURECART	11111
SYMMETRY	false
MEM_TOTAL	110000
SCF_CONVERGENCE = 6
THRESH=10
$end

$solvent
dielectric 4.90
$end
--------------------------------------------------------------

             Standard Nuclear Orientation (Angstroms)
    I     Atom           X                Y                Z
 ----------------------------------------------------------------
    1      C      -0.2888940000    -0.5127460000     0.0106690000
    2      C       0.0761060000     0.2699540000     1.1100690000
    3      C       0.6610060000     1.5241540000     0.7873690000
    4      H      -0.0797940000    -0.0643460000     2.1467690000
    5      C       0.7543060000     1.7241540000    -0.6018310000
    6      S       0.1094060000     0.3413540000    -1.4761310000
    7      C       1.1207060000     2.5099540000     1.8252690000
    8      H       0.9408060000     2.1242540000     2.8473690000
    9      H       0.5884060000     3.4801540000     1.7368690000
   10      H       2.2060060000     2.7258540000     1.7368690000
   11      C      -0.2888940000    -1.9534460000     0.0106690000
   12      H       0.0804060000    -1.9531460000     1.0255690000
   13      H      -1.0586940000    -2.6572460000     0.2907690000
   14      H       0.6011060000    -2.4723460000    -0.3132310000
   15      H       1.1554060000     2.5844540000    -1.1509310000
 ----------------------------------------------------------------

   10    -629.4108273631      4.98e-07  Convergence criterion met
 Total energy in the final basis set =     -629.4108273631
        RIMP2         total energy =      -630.5914301570 a.u.

                    Orbital Energies (a.u.)
 --------------------------------------------------------------

 Alpha MOs
 -- Occupied --
-91.9757 -11.2744 -11.2591 -11.2472 -11.2345 -11.2276 -11.2143  -8.9758
 -6.6567  -6.6561  -6.6556  -1.1630  -1.0542  -0.9993  -0.9383  -0.8837
 -0.7428  -0.7252  -0.6472  -0.5914  -0.5774  -0.5670  -0.5582  -0.5422
 -0.5114  -0.4795  -0.4685  -0.4405  -0.3361  -0.3014

          Ground-State Mulliken Net Atomic Charges

     Atom                 Charge (a.u.)
  ----------------------------------------
      1 C                     0.035862
      2 C                    -0.261742
      3 C                     0.033600
      4 H                     0.176099
      5 C                    -0.248172
      6 S                    -0.003538
      7 C                    -0.271357
      8 H                     0.101234
      9 H                     0.107130
     10 H                     0.106650
     11 C                    -0.375470
     12 H                     0.129144
     13 H                     0.141784
     14 H                     0.135978
     15 H                     0.192797
  ----------------------------------------
  Sum of atomic charges =     0.000000

                    Cartesian Multipole Moments
 -----------------------------------------------------------------
    Charge (ESU x 10^10)
                -0.0000
    Dipole Moment (Debye)
         X       0.9223      Y      -0.0628      Z       2.1230
       Tot       2.3156
    Quadrupole Moments (Debye-Ang)
        XX     -52.4852     XY       2.9353     YY     -44.1075
        XZ      -0.2941     YZ      -1.0716     ZZ     -48.7294

 Total job time:  157.87s(wall), 156.65s(cpu)
        *  Thank you very much for using Q-Chem.  Have a nice day.  *
