 Q-Chem 5.4, Q-Chem, Inc., Pleasanton, CA (2021)
 Q-Chem 5.4.0 for Intel X86 EM64T Linux

User input:
--------------------------------------------------------------
$molecule
0 1
C	-0.286972	-0.512746	0.019910
C	0.078028	0.269954	1.119310
C	0.662928	1.524154	0.796610
H	-0.077872	-0.064346	2.156010
C	0.756228	1.724154	-0.592590
S	0.111328	0.341354	-1.466890
C	1.122628	2.509954	1.834510
H	0.942728	2.124254	2.856610
H	0.590328	3.480154	1.746110
H	2.207928	2.725854	1.746110
C	-0.286972	-1.953446	0.019910
H	-0.099272	-1.953146	-1.043690
H	0.519728	-2.657246	0.162210
H	-1.219672	-2.472346	-0.144590
H	1.157328	2.584454	-1.141690
$end

$rem
JOBTYPE		SP
EXCHANGE	HF
CORRELATION	pRIMP2
BASIS		cc-pvtz
METHOD		rimp2
AUX_BASIS	rimp2-cc-pvtz
SOLVENT_METHOD	PCM
PURECART	11111
SYMMETRY	false
MEM_TOTAL	110000
SCF_CONVERGENCE = 6
THRESH=10
$end

$solvent
dielectric 4.90
$end
--------------------------------------------------------------

             Standard Nuclear Orientation (Angstroms)
    I     Atom           X                Y                Z
 ----------------------------------------------------------------
    1      C      -0.2869720000    -0.5127460000     0.0199100000
    2      C       0.0780280000     0.2699540000     1.1193100000
    3      C       0.6629280000     1.5241540000     0.7966100000
    4      H      -0.0778720000    -0.0643460000     2.1560100000
    5      C       0.7562280000     1.7241540000    -0.5925900000
    6      S       0.1113280000     0.3413540000    -1.4668900000
    7      C       1.1226280000     2.5099540000     1.8345100000
    8      H       0.9427280000     2.1242540000     2.8566100000
    9      H       0.5903280000     3.4801540000     1.7461100000
   10      H       2.2079280000     2.7258540000     1.7461100000
   11      C      -0.2869720000    -1.9534460000     0.0199100000
   12      H      -0.0992720000    -1.9531460000    -1.0436900000
   13      H       0.5197280000    -2.6572460000     0.1622100000
   14      H      -1.2196720000    -2.4723460000    -0.1445900000
   15      H       1.1573280000     2.5844540000    -1.1416900000
 ----------------------------------------------------------------

   10    -629.4062208863      5.44e-07  Convergence criterion met
 Total energy in the final basis set =     -629.4062208863
        RIMP2         total energy =      -630.5870132765 a.u.

                    Orbital Energies (a.u.)
 --------------------------------------------------------------

 Alpha MOs
 -- Occupied --
-91.9787 -11.2693 -11.2619 -11.2471 -11.2332 -11.2271 -11.2133  -8.9789
 -6.6598  -6.6592  -6.6586  -1.1629  -1.0551  -0.9946  -0.9460  -0.8809
 -0.7491  -0.7200  -0.6473  -0.5890  -0.5769  -0.5669  -0.5525  -0.5475
 -0.5121  -0.4789  -0.4645  -0.4425  -0.3375  -0.3035

          Ground-State Mulliken Net Atomic Charges

     Atom                 Charge (a.u.)
  ----------------------------------------
      1 C                     0.023432
      2 C                    -0.260994
      3 C                     0.045317
      4 H                     0.179579
      5 C                    -0.250353
      6 S                    -0.003827
      7 C                    -0.271919
      8 H                     0.102004
      9 H                     0.106931
     10 H                     0.106258
     11 C                    -0.360530
     12 H                     0.116853
     13 H                     0.149640
     14 H                     0.121892
     15 H                     0.195717
  ----------------------------------------
  Sum of atomic charges =     0.000000

                    Cartesian Multipole Moments
 -----------------------------------------------------------------
    Charge (ESU x 10^10)
                -0.0000
    Dipole Moment (Debye)
         X       0.8494      Y       0.1502      Z       0.9145
       Tot       1.2571
    Quadrupole Moments (Debye-Ang)
        XX     -52.3364     XY       3.0305     YY     -44.1020
        XZ       0.2671     YZ       1.3599     ZZ     -48.6722

 Total job time:  156.58s(wall), 154.96s(cpu)
        *  Thank you very much for using Q-Chem.  Have a nice day.  *
