 Q-Chem 5.4, Q-Chem, Inc., Pleasanton, CA (2021)
 Q-Chem 5.4.0 for Intel X86 EM64T Linux

User input:
--------------------------------------------------------------
$molecule
0 1
C	-0.057217	-0.573729	0.010543
C	0.018083	0.286571	1.109943
C	0.138683	1.665271	0.787243
H	-0.014017	-0.080829	2.146643
C	0.157983	1.885071	-0.601957
S	0.024983	0.365071	-1.476257
C	0.233583	2.748871	1.825143
H	0.196483	2.324771	2.847243
H	-0.598417	3.478371	1.736743
H	1.179583	3.322871	1.736743
C	-0.057217	-2.014429	0.010543
H	-0.597317	-2.014129	0.945743
H	-0.766617	-2.718229	-0.399057
H	0.762983	-2.533329	0.484143
H	0.240683	2.830671	-1.151057
$end

$rem
JOBTYPE		SP
EXCHANGE	HF
CORRELATION	pRIMP2
BASIS		cc-pvtz
METHOD		rimp2
AUX_BASIS	rimp2-cc-pvtz
SOLVENT_METHOD	PCM
PURECART	11111
SYMMETRY	false
MEM_TOTAL	110000
SCF_CONVERGENCE = 6
THRESH=10
$end

$solvent
dielectric 4.90
$end
--------------------------------------------------------------

             Standard Nuclear Orientation (Angstroms)
    I     Atom           X                Y                Z
 ----------------------------------------------------------------
    1      C      -0.0572170000    -0.5737290000     0.0105430000
    2      C       0.0180830000     0.2865710000     1.1099430000
    3      C       0.1386830000     1.6652710000     0.7872430000
    4      H      -0.0140170000    -0.0808290000     2.1466430000
    5      C       0.1579830000     1.8850710000    -0.6019570000
    6      S       0.0249830000     0.3650710000    -1.4762570000
    7      C       0.2335830000     2.7488710000     1.8251430000
    8      H       0.1964830000     2.3247710000     2.8472430000
    9      H      -0.5984170000     3.4783710000     1.7367430000
   10      H       1.1795830000     3.3228710000     1.7367430000
   11      C      -0.0572170000    -2.0144290000     0.0105430000
   12      H      -0.5973170000    -2.0141290000     0.9457430000
   13      H      -0.7666170000    -2.7182290000    -0.3990570000
   14      H       0.7629830000    -2.5333290000     0.4841430000
   15      H       0.2406830000     2.8306710000    -1.1510570000
 ----------------------------------------------------------------

   10    -629.4240567792      5.32e-07  Convergence criterion met
 Total energy in the final basis set =     -629.4240567792
        RIMP2         total energy =      -630.6018095459 a.u.

                    Orbital Energies (a.u.)
 --------------------------------------------------------------

 Alpha MOs
 -- Occupied --
-91.9755 -11.2799 -11.2546 -11.2472 -11.2315 -11.2272 -11.2175  -8.9755
 -6.6565  -6.6559  -6.6554  -1.1606  -1.0544  -0.9993  -0.9397  -0.8842
 -0.7422  -0.7225  -0.6484  -0.5919  -0.5764  -0.5672  -0.5593  -0.5426
 -0.5098  -0.4872  -0.4667  -0.4419  -0.3375  -0.2994

          Ground-State Mulliken Net Atomic Charges

     Atom                 Charge (a.u.)
  ----------------------------------------
      1 C                     0.065546
      2 C                    -0.275480
      3 C                     0.034933
      4 H                     0.177373
      5 C                    -0.259928
      6 S                    -0.006305
      7 C                    -0.274209
      8 H                     0.101100
      9 H                     0.107123
     10 H                     0.107395
     11 C                    -0.380989
     12 H                     0.126382
     13 H                     0.156380
     14 H                     0.128168
     15 H                     0.192511
  ----------------------------------------
  Sum of atomic charges =     0.000000

                    Cartesian Multipole Moments
 -----------------------------------------------------------------
    Charge (ESU x 10^10)
                -0.0000
    Dipole Moment (Debye)
         X      -0.2083      Y      -0.2674      Z       2.0680
       Tot       2.0956
    Quadrupole Moments (Debye-Ang)
        XX     -53.7448     XY       1.6652     YY     -42.1608
        XZ       0.2692     YZ      -0.8447     ZZ     -48.8657

 Total job time:  161.73s(wall), 159.63s(cpu)
        *  Thank you very much for using Q-Chem.  Have a nice day.  *
