 Q-Chem 5.4, Q-Chem, Inc., Pleasanton, CA (2021)
 Q-Chem 5.4.0 for Intel X86 EM64T Linux

User input:
--------------------------------------------------------------
$molecule
0 1
C	0.004860	-0.576312	0.015309
C	0.004860	0.287288	1.114709
C	0.004960	1.671188	0.792009
H	0.004860	-0.081512	2.151409
C	0.004960	1.891888	-0.597191
S	0.004860	0.366088	-1.471491
C	0.004960	2.758988	1.829909
H	0.004960	2.333288	2.852009
H	-0.887440	3.413288	1.741509
H	0.897360	3.413188	1.741509
C	0.004860	-2.017012	0.015309
H	-1.058740	-2.016712	-0.172391
H	0.147160	-2.720812	-0.791391
H	-0.159640	-2.535912	0.948009
H	0.004960	2.841088	-1.146291
$end

$rem
JOBTYPE		SP
EXCHANGE	HF
CORRELATION	pRIMP2
BASIS		cc-pvtz
METHOD		rimp2
AUX_BASIS	rimp2-cc-pvtz
SOLVENT_METHOD	PCM
PURECART	11111
SYMMETRY	false
MEM_TOTAL	110000
SCF_CONVERGENCE = 6
THRESH=10
$end

$solvent
dielectric 4.90
$end
--------------------------------------------------------------

             Standard Nuclear Orientation (Angstroms)
    I     Atom           X                Y                Z
 ----------------------------------------------------------------
    1      C       0.0048600000    -0.5763120000     0.0153090000
    2      C       0.0048600000     0.2872880000     1.1147090000
    3      C       0.0049600000     1.6711880000     0.7920090000
    4      H       0.0048600000    -0.0815120000     2.1514090000
    5      C       0.0049600000     1.8918880000    -0.5971910000
    6      S       0.0048600000     0.3660880000    -1.4714910000
    7      C       0.0049600000     2.7589880000     1.8299090000
    8      H       0.0049600000     2.3332880000     2.8520090000
    9      H      -0.8874400000     3.4132880000     1.7415090000
   10      H       0.8973600000     3.4131880000     1.7415090000
   11      C       0.0048600000    -2.0170120000     0.0153090000
   12      H      -1.0587400000    -2.0167120000    -0.1723910000
   13      H       0.1471600000    -2.7208120000    -0.7913910000
   14      H      -0.1596400000    -2.5359120000     0.9480090000
   15      H       0.0049600000     2.8410880000    -1.1462910000
 ----------------------------------------------------------------

   10    -629.4251294190      6.96e-07  Convergence criterion met
 Total energy in the final basis set =     -629.4251294190
        RIMP2         total energy =      -630.6001582902 a.u.

                    Orbital Energies (a.u.)
 --------------------------------------------------------------

 Alpha MOs
 -- Occupied --
-91.9776 -11.2861 -11.2489 -11.2468 -11.2264 -11.2235 -11.2225  -8.9775
 -6.6585  -6.6580  -6.6573  -1.1603  -1.0564  -0.9972  -0.9425  -0.8826
 -0.7443  -0.7185  -0.6478  -0.5897  -0.5757  -0.5697  -0.5513  -0.5466
 -0.5077  -0.4935  -0.4656  -0.4562  -0.3388  -0.2888

          Ground-State Mulliken Net Atomic Charges

     Atom                 Charge (a.u.)
  ----------------------------------------
      1 C                     0.063164
      2 C                    -0.304221
      3 C                     0.047360
      4 H                     0.178349
      5 C                    -0.277765
      6 S                    -0.005280
      7 C                    -0.274412
      8 H                     0.101281
      9 H                     0.107405
     10 H                     0.107311
     11 C                    -0.381051
     12 H                     0.142007
     13 H                     0.161871
     14 H                     0.141107
     15 H                     0.192874
  ----------------------------------------
  Sum of atomic charges =     0.000000

                    Cartesian Multipole Moments
 -----------------------------------------------------------------
    Charge (ESU x 10^10)
                -0.0000
    Dipole Moment (Debye)
         X      -0.7299      Y      -0.7483      Z       1.2884
       Tot       1.6591
    Quadrupole Moments (Debye-Ang)
        XX     -54.4026     XY       1.5107     YY     -41.6406
        XZ      -0.1294     YZ       0.7497     ZZ     -48.6207

 Total job time:  160.28s(wall), 157.31s(cpu)
        *  Thank you very much for using Q-Chem.  Have a nice day.  *
