 Q-Chem 5.4, Q-Chem, Inc., Pleasanton, CA (2021)
 Q-Chem 5.4.0 for Intel X86 EM64T Linux

User input:
--------------------------------------------------------------
$molecule
0 1
C	-0.589399	-0.237129	0.019521
C	0.158501	0.194671	1.118921
C	1.357001	0.886571	0.796221
H	-0.160899	0.010271	2.155621
C	1.548101	0.996871	-0.592979
S	0.226801	0.234071	-1.467279
C	2.299101	1.430471	1.834121
H	1.930401	1.217571	2.856221
H	2.419501	2.530371	1.745721
H	3.311901	0.984671	1.745721
C	-0.589399	-1.677829	0.019521
H	-0.049299	-1.677529	-0.915679
H	0.120001	-2.381629	0.429121
H	-1.409599	-2.196729	-0.454079
H	2.370201	1.471471	-1.142079
$end

$rem
JOBTYPE		SP
EXCHANGE	HF
CORRELATION	pRIMP2
BASIS		cc-pvtz
METHOD		rimp2
AUX_BASIS	rimp2-cc-pvtz
SOLVENT_METHOD	PCM
PURECART	11111
SYMMETRY	false
MEM_TOTAL	110000
SCF_CONVERGENCE = 6
THRESH=10
$end

$solvent
dielectric 4.90
$end
--------------------------------------------------------------

             Standard Nuclear Orientation (Angstroms)
    I     Atom           X                Y                Z
 ----------------------------------------------------------------
    1      C      -0.5893990000    -0.2371290000     0.0195210000
    2      C       0.1585010000     0.1946710000     1.1189210000
    3      C       1.3570010000     0.8865710000     0.7962210000
    4      H      -0.1608990000     0.0102710000     2.1556210000
    5      C       1.5481010000     0.9968710000    -0.5929790000
    6      S       0.2268010000     0.2340710000    -1.4672790000
    7      C       2.2991010000     1.4304710000     1.8341210000
    8      H       1.9304010000     1.2175710000     2.8562210000
    9      H       2.4195010000     2.5303710000     1.7457210000
   10      H       3.3119010000     0.9846710000     1.7457210000
   11      C      -0.5893990000    -1.6778290000     0.0195210000
   12      H      -0.0492990000    -1.6775290000    -0.9156790000
   13      H       0.1200010000    -2.3816290000     0.4291210000
   14      H      -1.4095990000    -2.1967290000    -0.4540790000
   15      H       2.3702010000     1.4714710000    -1.1420790000
 ----------------------------------------------------------------

   10    -629.3329961876      8.21e-07  Convergence criterion met
 Total energy in the final basis set =     -629.3329961876
        RIMP2         total energy =      -630.5247314852 a.u.

                    Orbital Energies (a.u.)
 --------------------------------------------------------------

 Alpha MOs
 -- Occupied --
-91.9697 -11.2833 -11.2555 -11.2482 -11.2451 -11.2290 -11.2026  -8.9719
 -6.6526  -6.6516  -6.6515  -1.1773  -1.0593  -0.9955  -0.9440  -0.8766
 -0.7573  -0.7290  -0.6453  -0.5873  -0.5838  -0.5669  -0.5535  -0.5467
 -0.5191  -0.4726  -0.4630  -0.4278  -0.3324  -0.2955

          Ground-State Mulliken Net Atomic Charges

     Atom                 Charge (a.u.)
  ----------------------------------------
      1 C                    -0.099036
      2 C                    -0.116630
      3 C                    -0.024965
      4 H                     0.186540
      5 C                    -0.181562
      6 S                    -0.001583
      7 C                    -0.268270
      8 H                     0.102014
      9 H                     0.107491
     10 H                     0.104493
     11 C                    -0.385347
     12 H                     0.136622
     13 H                     0.139842
     14 H                     0.101860
     15 H                     0.198531
  ----------------------------------------
  Sum of atomic charges =     0.000000

                    Cartesian Multipole Moments
 -----------------------------------------------------------------
    Charge (ESU x 10^10)
                -0.0000
    Dipole Moment (Debye)
         X       2.8294      Y       0.1696      Z       1.2575
       Tot       3.1009
    Quadrupole Moments (Debye-Ang)
        XX     -48.3797     XY       3.3367     YY     -50.4380
        XZ       0.1050     YZ       1.2360     ZZ     -47.7602

 Total job time:  165.70s(wall), 164.33s(cpu)
        *  Thank you very much for using Q-Chem.  Have a nice day.  *
