 Q-Chem 5.4, Q-Chem, Inc., Pleasanton, CA (2021)
 Q-Chem 5.4.0 for Intel X86 EM64T Linux

User input:
--------------------------------------------------------------
$molecule
0 1
C	0.003329	-0.576309	0.018592
C	0.003329	0.287291	1.117992
C	0.003429	1.671191	0.795292
H	0.003329	-0.081509	2.154692
C	0.003429	1.891891	-0.593908
S	0.003329	0.366091	-1.468208
C	0.003429	2.758991	1.833192
H	0.003429	2.333291	2.855292
H	-0.888971	3.413291	1.744792
H	0.895829	3.413191	1.744792
C	0.003329	-2.017009	0.018592
H	-0.823971	-2.017209	-0.675708
H	-0.523271	-2.720809	0.646092
H	0.612129	-2.535909	-0.707008
H	0.003429	2.841091	-1.143008
$end

$rem
JOBTYPE		SP
EXCHANGE	HF
CORRELATION	pRIMP2
BASIS		cc-pvtz
METHOD		rimp2
AUX_BASIS	rimp2-cc-pvtz
SOLVENT_METHOD	PCM
PURECART	11111
SYMMETRY	false
MEM_TOTAL	110000
SCF_CONVERGENCE = 6
THRESH=10
$end

$solvent
dielectric 4.90
$end
--------------------------------------------------------------

   10    -629.4229858221      6.49e-07  Convergence criterion met
 Total energy in the final basis set =     -629.4229858221
        RIMP2         total energy =      -630.5987681177 a.u.
 Total job time:  158.50s(wall), 155.69s(cpu)
        *  Thank you very much for using Q-Chem.  Have a nice day.  *
 Q-Chem 5.4, Q-Chem, Inc., Pleasanton, CA (2021)
 Q-Chem 5.4.0 for Intel X86 EM64T Linux

User input:
--------------------------------------------------------------
$molecule
0 1
C	0.003329	-0.576309	0.018592
C	0.003329	0.287291	1.117992
C	0.003429	1.671191	0.795292
H	0.003329	-0.081509	2.154692
C	0.003429	1.891891	-0.593908
S	0.003329	0.366091	-1.468208
C	0.003429	2.758991	1.833192
H	0.003429	2.333291	2.855292
H	-0.888971	3.413291	1.744792
H	0.895829	3.413191	1.744792
C	0.003329	-2.017009	0.018592
H	-0.823971	-2.017209	-0.675708
H	-0.523271	-2.720809	0.646092
H	0.612129	-2.535909	-0.707008
H	0.003429	2.841091	-1.143008
$end

$rem
JOBTYPE		SP
EXCHANGE	HF
CORRELATION	pRIMP2
BASIS		cc-pvtz
METHOD		rimp2
AUX_BASIS	rimp2-cc-pvtz
SOLVENT_METHOD	PCM
PURECART	11111
SYMMETRY	false
MEM_TOTAL	110000
SCF_CONVERGENCE = 6
THRESH=10
$end

$solvent
dielectric 4.90
$end
--------------------------------------------------------------

             Standard Nuclear Orientation (Angstroms)
    I     Atom           X                Y                Z
 ----------------------------------------------------------------
    1      C       0.0033290000    -0.5763090000     0.0185920000
    2      C       0.0033290000     0.2872910000     1.1179920000
    3      C       0.0034290000     1.6711910000     0.7952920000
    4      H       0.0033290000    -0.0815090000     2.1546920000
    5      C       0.0034290000     1.8918910000    -0.5939080000
    6      S       0.0033290000     0.3660910000    -1.4682080000
    7      C       0.0034290000     2.7589910000     1.8331920000
    8      H       0.0034290000     2.3332910000     2.8552920000
    9      H      -0.8889710000     3.4132910000     1.7447920000
   10      H       0.8958290000     3.4131910000     1.7447920000
   11      C       0.0033290000    -2.0170090000     0.0185920000
   12      H      -0.8239710000    -2.0172090000    -0.6757080000
   13      H      -0.5232710000    -2.7208090000     0.6460920000
   14      H       0.6121290000    -2.5359090000    -0.7070080000
   15      H       0.0034290000     2.8410910000    -1.1430080000
 ----------------------------------------------------------------

   10    -629.4229858221      6.49e-07  Convergence criterion met
 Total energy in the final basis set =     -629.4229858221
        RIMP2         total energy =      -630.5987681177 a.u.

                    Orbital Energies (a.u.)
 --------------------------------------------------------------

 Alpha MOs
 -- Occupied --
-91.9790 -11.2813 -11.2530 -11.2467 -11.2265 -11.2254 -11.2194  -8.9789
 -6.6599  -6.6594  -6.6587  -1.1605  -1.0559  -0.9958  -0.9450  -0.8818
 -0.7459  -0.7181  -0.6490  -0.5895  -0.5755  -0.5656  -0.5531  -0.5474
 -0.5080  -0.4906  -0.4654  -0.4529  -0.3393  -0.2940

          Ground-State Mulliken Net Atomic Charges

     Atom                 Charge (a.u.)
  ----------------------------------------
      1 C                     0.056652
      2 C                    -0.287175
      3 C                     0.042794
      4 H                     0.180631
      5 C                    -0.265459
      6 S                    -0.004695
      7 C                    -0.273610
      8 H                     0.101484
      9 H                     0.107087
     10 H                     0.107278
     11 C                    -0.377052
     12 H                     0.126104
     13 H                     0.159330
     14 H                     0.132357
     15 H                     0.194274
  ----------------------------------------
  Sum of atomic charges =     0.000000

                    Cartesian Multipole Moments
 -----------------------------------------------------------------
    Charge (ESU x 10^10)
                -0.0000
    Dipole Moment (Debye)
         X      -0.5266      Y      -0.4047      Z       0.9917
       Tot       1.1936
    Quadrupole Moments (Debye-Ang)
        XX     -54.1203     XY       1.2355     YY     -41.8340
        XZ      -0.3217     YZ       1.0778     ZZ     -48.7178

 Total job time:  156.28s(wall), 155.04s(cpu)
        *  Thank you very much for using Q-Chem.  Have a nice day.  *
