 Q-Chem 5.4, Q-Chem, Inc., Pleasanton, CA (2021)
 Q-Chem 5.4.0 for Intel X86 EM64T Linux

User input:
--------------------------------------------------------------
$molecule
0 1
C	-0.179132	-0.553191	0.011685
C	0.044368	0.281009	1.111085
C	0.402568	1.617709	0.788385
H	-0.051032	-0.075291	2.147785
C	0.459768	1.830809	-0.600815
S	0.064768	0.357109	-1.475115
C	0.684168	2.668409	1.826285
H	0.573968	2.257309	2.848385
H	-0.008432	3.531409	1.737885
H	1.715468	3.069409	1.737885
C	-0.179132	-1.993891	0.011685
H	0.514968	-1.993591	0.839085
H	-0.806732	-2.697691	0.538185
H	0.546368	-2.512791	-0.597115
H	0.705468	2.747709	-1.149915
$end

$rem
JOBTYPE		SP
EXCHANGE	HF
CORRELATION	pRIMP2
BASIS		cc-pvtz
METHOD		rimp2
AUX_BASIS	rimp2-cc-pvtz
SOLVENT_METHOD	PCM
PURECART	11111
SYMMETRY	false
MEM_TOTAL	110000
SCF_CONVERGENCE = 6
THRESH=10
$end

$solvent
dielectric 4.90
$end
--------------------------------------------------------------

             Standard Nuclear Orientation (Angstroms)
    I     Atom           X                Y                Z
 ----------------------------------------------------------------
    1      C      -0.1791320000    -0.5531910000     0.0116850000
    2      C       0.0443680000     0.2810090000     1.1110850000
    3      C       0.4025680000     1.6177090000     0.7883850000
    4      H      -0.0510320000    -0.0752910000     2.1477850000
    5      C       0.4597680000     1.8308090000    -0.6008150000
    6      S       0.0647680000     0.3571090000    -1.4751150000
    7      C       0.6841680000     2.6684090000     1.8262850000
    8      H       0.5739680000     2.2573090000     2.8483850000
    9      H      -0.0084320000     3.5314090000     1.7378850000
   10      H       1.7154680000     3.0694090000     1.7378850000
   11      C      -0.1791320000    -1.9938910000     0.0116850000
   12      H       0.5149680000    -1.9935910000     0.8390850000
   13      H      -0.8067320000    -2.6976910000     0.5381850000
   14      H       0.5463680000    -2.5127910000    -0.5971150000
   15      H       0.7054680000     2.7477090000    -1.1499150000
 ----------------------------------------------------------------

   10    -629.4187969548      5.48e-07  Convergence criterion met
 Total energy in the final basis set =     -629.4187969548
        RIMP2         total energy =      -630.5970020847 a.u.

                    Orbital Energies (a.u.)
 --------------------------------------------------------------

 Alpha MOs
 -- Occupied --
-91.9777 -11.2802 -11.2536 -11.2472 -11.2287 -11.2270 -11.2173  -8.9775
 -6.6585  -6.6579  -6.6574  -1.1614  -1.0548  -0.9988  -0.9395  -0.8834
 -0.7425  -0.7223  -0.6487  -0.5901  -0.5748  -0.5671  -0.5589  -0.5431
 -0.5092  -0.4853  -0.4678  -0.4480  -0.3366  -0.2960

          Ground-State Mulliken Net Atomic Charges

     Atom                 Charge (a.u.)
  ----------------------------------------
      1 C                     0.054172
      2 C                    -0.271226
      3 C                     0.034545
      4 H                     0.175781
      5 C                    -0.262423
      6 S                    -0.002552
      7 C                    -0.273159
      8 H                     0.101200
      9 H                     0.107299
     10 H                     0.106881
     11 C                    -0.387267
     12 H                     0.138003
     13 H                     0.149881
     14 H                     0.136280
     15 H                     0.192584
  ----------------------------------------
  Sum of atomic charges =     0.000000

                    Cartesian Multipole Moments
 -----------------------------------------------------------------
    Charge (ESU x 10^10)
                -0.0000
    Dipole Moment (Debye)
         X       0.7995      Y      -0.3451      Z       1.9628
       Tot       2.1473
    Quadrupole Moments (Debye-Ang)
        XX     -53.6087     XY       1.2661     YY     -42.8514
        XZ      -0.2862     YZ      -0.8810     ZZ     -48.6688

 Total job time:  156.28s(wall), 155.37s(cpu)
        *  Thank you very much for using Q-Chem.  Have a nice day.  *
