 Q-Chem 5.4, Q-Chem, Inc., Pleasanton, CA (2021)
 Q-Chem 5.4.0 for Intel X86 EM64T Linux

User input:
--------------------------------------------------------------
$molecule
0 1
C	-0.338057	-0.485421	0.010277
C	0.093743	0.262479	1.109677
C	0.785743	1.460979	0.786977
H	-0.090657	-0.056921	2.146377
C	0.896043	1.652079	-0.602223
S	0.133143	0.330679	-1.476523
C	1.329643	2.402979	1.824877
H	1.116843	2.034379	2.846977
H	0.883943	3.415779	1.736477
H	2.429643	2.523379	1.736477
C	-0.338057	-1.926121	0.010277
H	-0.707557	-1.925821	1.025077
H	-1.107857	-2.629921	-0.269923
H	0.551943	-2.445021	0.334177
H	1.370743	2.474079	-1.151323
$end

$rem
JOBTYPE		SP
EXCHANGE	HF
CORRELATION	pRIMP2
BASIS		cc-pvtz
METHOD		rimp2
AUX_BASIS	rimp2-cc-pvtz
SOLVENT_METHOD	PCM
PURECART	11111
SYMMETRY	false
MEM_TOTAL	110000
SCF_CONVERGENCE = 6
THRESH=10
$end

$solvent
dielectric 4.90
$end
--------------------------------------------------------------

   10    -629.4081541447      5.21e-07  Convergence criterion met
 Total energy in the final basis set =     -629.4081541447
        RIMP2         total energy =      -630.5899773008 a.u.
 Total job time:  157.19s(wall), 155.70s(cpu)
        *  Thank you very much for using Q-Chem.  Have a nice day.  *
 Q-Chem 5.4, Q-Chem, Inc., Pleasanton, CA (2021)
 Q-Chem 5.4.0 for Intel X86 EM64T Linux

User input:
--------------------------------------------------------------
$molecule
0 1
C	-0.338057	-0.485421	0.010277
C	0.093743	0.262479	1.109677
C	0.785743	1.460979	0.786977
H	-0.090657	-0.056921	2.146377
C	0.896043	1.652079	-0.602223
S	0.133143	0.330679	-1.476523
C	1.329643	2.402979	1.824877
H	1.116843	2.034379	2.846977
H	0.883943	3.415779	1.736477
H	2.429643	2.523379	1.736477
C	-0.338057	-1.926121	0.010277
H	-0.707557	-1.925821	1.025077
H	-1.107857	-2.629921	-0.269923
H	0.551943	-2.445021	0.334177
H	1.370743	2.474079	-1.151323
$end

$rem
JOBTYPE		SP
EXCHANGE	HF
CORRELATION	pRIMP2
BASIS		cc-pvtz
METHOD		rimp2
AUX_BASIS	rimp2-cc-pvtz
SOLVENT_METHOD	PCM
PURECART	11111
SYMMETRY	false
MEM_TOTAL	110000
SCF_CONVERGENCE = 6
THRESH=10
$end

$solvent
dielectric 4.90
$end
--------------------------------------------------------------

             Standard Nuclear Orientation (Angstroms)
    I     Atom           X                Y                Z
 ----------------------------------------------------------------
    1      C      -0.3380570000    -0.4854210000     0.0102770000
    2      C       0.0937430000     0.2624790000     1.1096770000
    3      C       0.7857430000     1.4609790000     0.7869770000
    4      H      -0.0906570000    -0.0569210000     2.1463770000
    5      C       0.8960430000     1.6520790000    -0.6022230000
    6      S       0.1331430000     0.3306790000    -1.4765230000
    7      C       1.3296430000     2.4029790000     1.8248770000
    8      H       1.1168430000     2.0343790000     2.8469770000
    9      H       0.8839430000     3.4157790000     1.7364770000
   10      H       2.4296430000     2.5233790000     1.7364770000
   11      C      -0.3380570000    -1.9261210000     0.0102770000
   12      H      -0.7075570000    -1.9258210000     1.0250770000
   13      H      -1.1078570000    -2.6299210000    -0.2699230000
   14      H       0.5519430000    -2.4450210000     0.3341770000
   15      H       1.3707430000     2.4740790000    -1.1513230000
 ----------------------------------------------------------------

   10    -629.4081541447      5.21e-07  Convergence criterion met
 Total energy in the final basis set =     -629.4081541447
        RIMP2         total energy =      -630.5899773008 a.u.

                    Orbital Energies (a.u.)
 --------------------------------------------------------------

 Alpha MOs
 -- Occupied --
-91.9733 -11.2708 -11.2623 -11.2477 -11.2381 -11.2279 -11.2144  -8.9737
 -6.6546  -6.6540  -6.6535  -1.1634  -1.0540  -0.9994  -0.9383  -0.8842
 -0.7431  -0.7255  -0.6462  -0.5914  -0.5791  -0.5661  -0.5584  -0.5422
 -0.5128  -0.4832  -0.4652  -0.4336  -0.3376  -0.3026

          Ground-State Mulliken Net Atomic Charges

     Atom                 Charge (a.u.)
  ----------------------------------------
      1 C                     0.019339
      2 C                    -0.259492
      3 C                     0.037820
      4 H                     0.177459
      5 C                    -0.242806
      6 S                    -0.003208
      7 C                    -0.270169
      8 H                     0.101319
      9 H                     0.106976
     10 H                     0.106770
     11 C                    -0.363257
     12 H                     0.115337
     13 H                     0.145884
     14 H                     0.134651
     15 H                     0.193376
  ----------------------------------------
  Sum of atomic charges =     0.000000

                    Cartesian Multipole Moments
 -----------------------------------------------------------------
    Charge (ESU x 10^10)
                -0.0000
    Dipole Moment (Debye)
         X       0.6803      Y       0.0275      Z       2.1727
       Tot       2.2769
    Quadrupole Moments (Debye-Ang)
        XX     -51.5787     XY       4.4849     YY     -44.6814
        XZ       0.0896     YZ      -0.9782     ZZ     -48.7896

 Total job time:  156.59s(wall), 155.74s(cpu)
        *  Thank you very much for using Q-Chem.  Have a nice day.  *
