 Q-Chem 5.4, Q-Chem, Inc., Pleasanton, CA (2021)
 Q-Chem 5.4.0 for Intel X86 EM64T Linux

User input:
--------------------------------------------------------------
$molecule
0 1
C	-0.173646	-0.553189	0.019522
C	0.049854	0.281011	1.118922
C	0.408054	1.617711	0.796222
H	-0.045546	-0.075289	2.155622
C	0.465254	1.830811	-0.592978
S	0.070254	0.357111	-1.467278
C	0.689654	2.668411	1.834122
H	0.579454	2.257311	2.856222
H	-0.002946	3.531411	1.745722
H	1.720954	3.069411	1.745722
C	-0.173646	-1.993889	0.019522
H	-0.713546	-1.994089	-0.915878
H	-0.883146	-2.697689	0.429022
H	0.646554	-2.512789	-0.454078
H	0.710954	2.747711	-1.142078
$end

$rem
JOBTYPE		SP
EXCHANGE	HF
CORRELATION	pRIMP2
BASIS		cc-pvtz
METHOD		rimp2
AUX_BASIS	rimp2-cc-pvtz
SOLVENT_METHOD	PCM
PURECART	11111
SYMMETRY	false
MEM_TOTAL	110000
SCF_CONVERGENCE = 6
THRESH=10
$end

$solvent
dielectric 4.90
$end
--------------------------------------------------------------

             Standard Nuclear Orientation (Angstroms)
    I     Atom           X                Y                Z
 ----------------------------------------------------------------
    1      C      -0.1736460000    -0.5531890000     0.0195220000
    2      C       0.0498540000     0.2810110000     1.1189220000
    3      C       0.4080540000     1.6177110000     0.7962220000
    4      H      -0.0455460000    -0.0752890000     2.1556220000
    5      C       0.4652540000     1.8308110000    -0.5929780000
    6      S       0.0702540000     0.3571110000    -1.4672780000
    7      C       0.6896540000     2.6684110000     1.8341220000
    8      H       0.5794540000     2.2573110000     2.8562220000
    9      H      -0.0029460000     3.5314110000     1.7457220000
   10      H       1.7209540000     3.0694110000     1.7457220000
   11      C      -0.1736460000    -1.9938890000     0.0195220000
   12      H      -0.7135460000    -1.9940890000    -0.9158780000
   13      H      -0.8831460000    -2.6976890000     0.4290220000
   14      H       0.6465540000    -2.5127890000    -0.4540780000
   15      H       0.7109540000     2.7477110000    -1.1420780000
 ----------------------------------------------------------------

   10    -629.4169166690      5.48e-07  Convergence criterion met
 Total energy in the final basis set =     -629.4169166690
        RIMP2         total energy =      -630.5950417761 a.u.

                    Orbital Energies (a.u.)
 --------------------------------------------------------------

 Alpha MOs
 -- Occupied --
-91.9802 -11.2753 -11.2575 -11.2470 -11.2285 -11.2268 -11.2164  -8.9800
 -6.6610  -6.6605  -6.6599  -1.1612  -1.0551  -0.9954  -0.9458  -0.8817
 -0.7473  -0.7188  -0.6477  -0.5912  -0.5749  -0.5661  -0.5535  -0.5471
 -0.5094  -0.4852  -0.4647  -0.4477  -0.3386  -0.2996

          Ground-State Mulliken Net Atomic Charges

     Atom                 Charge (a.u.)
  ----------------------------------------
      1 C                     0.031547
      2 C                    -0.258848
      3 C                     0.036078
      4 H                     0.179906
      5 C                    -0.253965
      6 S                    -0.002411
      7 C                    -0.273139
      8 H                     0.101732
      9 H                     0.106882
     10 H                     0.106822
     11 C                    -0.367598
     12 H                     0.114716
     13 H                     0.156230
     14 H                     0.127342
     15 H                     0.194705
  ----------------------------------------
  Sum of atomic charges =     0.000000

                    Cartesian Multipole Moments
 -----------------------------------------------------------------
    Charge (ESU x 10^10)
                -0.0000
    Dipole Moment (Debye)
         X       0.0838      Y      -0.0682      Z       0.9261
       Tot       0.9324
    Quadrupole Moments (Debye-Ang)
        XX     -53.2128     XY       3.0666     YY     -42.7113
        XZ      -0.1619     YZ       1.2178     ZZ     -48.7603

 Total job time:  155.62s(wall), 154.43s(cpu)
        *  Thank you very much for using Q-Chem.  Have a nice day.  *
