 Q-Chem 5.4, Q-Chem, Inc., Pleasanton, CA (2021)
 Q-Chem 5.4.0 for Intel X86 EM64T Linux

User input:
--------------------------------------------------------------
$molecule
0 1
C	-0.432483	-0.417597	0.018379
C	0.122617	0.243903	1.117779
C	1.012217	1.304103	0.795079
H	-0.114383	-0.038597	2.154479
C	1.154117	1.473103	-0.594121
S	0.173317	0.304303	-1.468421
C	1.711417	2.137303	1.832979
H	1.437817	1.811303	2.855079
H	1.448417	3.212103	1.744579
H	2.815617	2.064903	1.744579
C	-0.432483	-1.858297	0.018379
H	-1.126583	-1.857997	-0.809021
H	0.195117	-2.562097	-0.508121
H	-1.157983	-2.377197	0.627179
H	1.764217	2.200203	-1.143221
$end

$rem
JOBTYPE		SP
EXCHANGE	HF
CORRELATION	pRIMP2
BASIS		cc-pvtz
METHOD		rimp2
AUX_BASIS	rimp2-cc-pvtz
SOLVENT_METHOD	PCM
PURECART	11111
SYMMETRY	false
MEM_TOTAL	110000
SCF_CONVERGENCE = 6
THRESH=10
$end

$solvent
dielectric 4.90
$end
--------------------------------------------------------------

             Standard Nuclear Orientation (Angstroms)
    I     Atom           X                Y                Z
 ----------------------------------------------------------------
    1      C      -0.4324830000    -0.4175970000     0.0183790000
    2      C       0.1226170000     0.2439030000     1.1177790000
    3      C       1.0122170000     1.3041030000     0.7950790000
    4      H      -0.1143830000    -0.0385970000     2.1544790000
    5      C       1.1541170000     1.4731030000    -0.5941210000
    6      S       0.1733170000     0.3043030000    -1.4684210000
    7      C       1.7114170000     2.1373030000     1.8329790000
    8      H       1.4378170000     1.8113030000     2.8550790000
    9      H       1.4484170000     3.2121030000     1.7445790000
   10      H       2.8156170000     2.0649030000     1.7445790000
   11      C      -0.4324830000    -1.8582970000     0.0183790000
   12      H      -1.1265830000    -1.8579970000    -0.8090210000
   13      H       0.1951170000    -2.5620970000    -0.5081210000
   14      H      -1.1579830000    -2.3771970000     0.6271790000
   15      H       1.7642170000     2.2002030000    -1.1432210000
 ----------------------------------------------------------------

   10    -629.3861634374      5.83e-07  Convergence criterion met
 Total energy in the final basis set =     -629.3861634374
        RIMP2         total energy =      -630.5710078948 a.u.

                    Orbital Energies (a.u.)
 --------------------------------------------------------------

 Alpha MOs
 -- Occupied --
-91.9781 -11.2681 -11.2606 -11.2479 -11.2377 -11.2275 -11.2108  -8.9783
 -6.6592  -6.6585  -6.6580  -1.1649  -1.0540  -0.9954  -0.9441  -0.8816
 -0.7492  -0.7227  -0.6438  -0.5880  -0.5761  -0.5722  -0.5506  -0.5456
 -0.5152  -0.4771  -0.4567  -0.4450  -0.3370  -0.2975

          Ground-State Mulliken Net Atomic Charges

     Atom                 Charge (a.u.)
  ----------------------------------------
      1 C                    -0.043754
      2 C                    -0.200203
      3 C                     0.022296
      4 H                     0.181020
      5 C                    -0.224699
      6 S                     0.002895
      7 C                    -0.270078
      8 H                     0.101764
      9 H                     0.106801
     10 H                     0.105379
     11 C                    -0.369686
     12 H                     0.113696
     13 H                     0.152962
     14 H                     0.126100
     15 H                     0.195506
  ----------------------------------------
  Sum of atomic charges =     0.000000

                    Cartesian Multipole Moments
 -----------------------------------------------------------------
    Charge (ESU x 10^10)
                -0.0000
    Dipole Moment (Debye)
         X       0.9610      Y       0.2341      Z       1.1659
       Tot       1.5289
    Quadrupole Moments (Debye-Ang)
        XX     -50.3511     XY       5.2169     YY     -46.3976
        XZ      -0.2454     YZ       0.8852     ZZ     -48.3610

 Total job time:  156.55s(wall), 154.51s(cpu)
        *  Thank you very much for using Q-Chem.  Have a nice day.  *
