 Q-Chem 5.4, Q-Chem, Inc., Pleasanton, CA (2021)
 Q-Chem 5.4.0 for Intel X86 EM64T Linux

User input:
--------------------------------------------------------------
$molecule
0 1
C	-0.231437	-0.535395	0.010180
C	0.063963	0.276105	1.109580
C	0.537263	1.576505	0.786880
H	-0.062137	-0.070395	2.146280
C	0.612763	1.783905	-0.602320
S	0.090863	0.350205	-1.476620
C	0.909363	2.598705	1.824780
H	0.763763	2.198705	2.846880
H	0.294563	3.518705	1.736380
H	1.971763	2.908305	1.736380
C	-0.231437	-1.976095	0.010180
H	-0.231537	-1.976295	1.090180
H	0.587763	-2.679895	0.010280
H	-1.178537	-2.494995	0.010180
H	0.937463	2.675905	-1.151420
$end

$rem
JOBTYPE		SP
EXCHANGE	HF
CORRELATION	pRIMP2
BASIS		cc-pvtz
METHOD		rimp2
AUX_BASIS	rimp2-cc-pvtz
SOLVENT_METHOD	PCM
PURECART	11111
SYMMETRY	false
MEM_TOTAL	110000
SCF_CONVERGENCE = 6
THRESH=10
$end

$solvent
dielectric 4.90
$end
--------------------------------------------------------------

             Standard Nuclear Orientation (Angstroms)
    I     Atom           X                Y                Z
 ----------------------------------------------------------------
    1      C      -0.2314370000    -0.5353950000     0.0101800000
    2      C       0.0639630000     0.2761050000     1.1095800000
    3      C       0.5372630000     1.5765050000     0.7868800000
    4      H      -0.0621370000    -0.0703950000     2.1462800000
    5      C       0.6127630000     1.7839050000    -0.6023200000
    6      S       0.0908630000     0.3502050000    -1.4766200000
    7      C       0.9093630000     2.5987050000     1.8247800000
    8      H       0.7637630000     2.1987050000     2.8468800000
    9      H       0.2945630000     3.5187050000     1.7363800000
   10      H       1.9717630000     2.9083050000     1.7363800000
   11      C      -0.2314370000    -1.9760950000     0.0101800000
   12      H      -0.2315370000    -1.9762950000     1.0901800000
   13      H       0.5877630000    -2.6798950000     0.0102800000
   14      H      -1.1785370000    -2.4949950000     0.0101800000
   15      H       0.9374630000     2.6759050000    -1.1514200000
 ----------------------------------------------------------------

   10    -629.4159739080      4.92e-07  Convergence criterion met
 Total energy in the final basis set =     -629.4159739080
        RIMP2         total energy =      -630.5958749174 a.u.

                    Orbital Energies (a.u.)
 --------------------------------------------------------------

 Alpha MOs
 -- Occupied --
-91.9745 -11.2736 -11.2603 -11.2472 -11.2366 -11.2277 -11.2145  -8.9747
 -6.6556  -6.6550  -6.6546  -1.1622  -1.0537  -0.9997  -0.9390  -0.8844
 -0.7427  -0.7254  -0.6482  -0.5899  -0.5788  -0.5682  -0.5579  -0.5418
 -0.5125  -0.4805  -0.4677  -0.4356  -0.3375  -0.3047

          Ground-State Mulliken Net Atomic Charges

     Atom                 Charge (a.u.)
  ----------------------------------------
      1 C                     0.036826
      2 C                    -0.265342
      3 C                     0.036070
      4 H                     0.177051
      5 C                    -0.246560
      6 S                    -0.005490
      7 C                    -0.271771
      8 H                     0.101223
      9 H                     0.106995
     10 H                     0.107058
     11 C                    -0.359220
     12 H                     0.118149
     13 H                     0.147045
     14 H                     0.124599
     15 H                     0.193366
  ----------------------------------------
  Sum of atomic charges =     0.000000

                    Cartesian Multipole Moments
 -----------------------------------------------------------------
    Charge (ESU x 10^10)
                -0.0000
    Dipole Moment (Debye)
         X       0.5563      Y       0.0479      Z       2.1723
       Tot       2.2429
    Quadrupole Moments (Debye-Ang)
        XX     -52.7380     XY       2.7144     YY     -43.4015
        XZ      -0.0838     YZ      -1.1075     ZZ     -48.8811

 Total job time:  158.45s(wall), 156.54s(cpu)
        *  Thank you very much for using Q-Chem.  Have a nice day.  *
