 Q-Chem 5.4, Q-Chem, Inc., Pleasanton, CA (2021)
 Q-Chem 5.4.0 for Intel X86 EM64T Linux

User input:
--------------------------------------------------------------
$molecule
0 1
C	-0.591030	-0.237127	0.018379
C	0.156870	0.194673	1.117779
C	1.355370	0.886573	0.795079
H	-0.162530	0.010273	2.154479
C	1.546470	0.996873	-0.594121
S	0.225170	0.234073	-1.468421
C	2.297470	1.430473	1.832979
H	1.928770	1.217573	2.855079
H	2.417870	2.530373	1.744579
H	3.310270	0.984673	1.744579
C	-0.591030	-1.677827	0.018379
H	0.103270	-1.678027	-0.808921
H	-1.218530	-2.381627	-0.508221
H	0.134570	-2.196727	0.627179
H	2.368570	1.471473	-1.143221
$end

$rem
JOBTYPE		SP
EXCHANGE	HF
CORRELATION	pRIMP2
BASIS		cc-pvtz
METHOD		rimp2
AUX_BASIS	rimp2-cc-pvtz
SOLVENT_METHOD	PCM
PURECART	11111
SYMMETRY	false
MEM_TOTAL	110000
SCF_CONVERGENCE = 6
THRESH=10
$end

$solvent
dielectric 4.90
$end
--------------------------------------------------------------

             Standard Nuclear Orientation (Angstroms)
    I     Atom           X                Y                Z
 ----------------------------------------------------------------
    1      C      -0.5910300000    -0.2371270000     0.0183790000
    2      C       0.1568700000     0.1946730000     1.1177790000
    3      C       1.3553700000     0.8865730000     0.7950790000
    4      H      -0.1625300000     0.0102730000     2.1544790000
    5      C       1.5464700000     0.9968730000    -0.5941210000
    6      S       0.2251700000     0.2340730000    -1.4684210000
    7      C       2.2974700000     1.4304730000     1.8329790000
    8      H       1.9287700000     1.2175730000     2.8550790000
    9      H       2.4178700000     2.5303730000     1.7445790000
   10      H       3.3102700000     0.9846730000     1.7445790000
   11      C      -0.5910300000    -1.6778270000     0.0183790000
   12      H       0.1032700000    -1.6780270000    -0.8089210000
   13      H      -1.2185300000    -2.3816270000    -0.5082210000
   14      H       0.1345700000    -2.1967270000     0.6271790000
   15      H       2.3685700000     1.4714730000    -1.1432210000
 ----------------------------------------------------------------

   10    -629.3363747142      8.29e-07  Convergence criterion met
 Total energy in the final basis set =     -629.3363747142
        RIMP2         total energy =      -630.5283014668 a.u.

                    Orbital Energies (a.u.)
 --------------------------------------------------------------

 Alpha MOs
 -- Occupied --
-91.9692 -11.2818 -11.2536 -11.2500 -11.2491 -11.2293 -11.2047  -8.9715
 -6.6522  -6.6513  -6.6511  -1.1784  -1.0599  -0.9963  -0.9425  -0.8771
 -0.7567  -0.7294  -0.6439  -0.5912  -0.5843  -0.5651  -0.5537  -0.5469
 -0.5152  -0.4835  -0.4624  -0.4279  -0.3342  -0.2926

          Ground-State Mulliken Net Atomic Charges

     Atom                 Charge (a.u.)
  ----------------------------------------
      1 C                    -0.081451
      2 C                    -0.134575
      3 C                    -0.019029
      4 H                     0.186993
      5 C                    -0.187898
      6 S                    -0.002010
      7 C                    -0.267713
      8 H                     0.102122
      9 H                     0.107843
     10 H                     0.105098
     11 C                    -0.383934
     12 H                     0.134333
     13 H                     0.120446
     14 H                     0.121561
     15 H                     0.198213
  ----------------------------------------
  Sum of atomic charges =     0.000000

                    Cartesian Multipole Moments
 -----------------------------------------------------------------
    Charge (ESU x 10^10)
                -0.0000
    Dipole Moment (Debye)
         X       2.8181      Y       0.0450      Z       1.3366
       Tot       3.1193
    Quadrupole Moments (Debye-Ang)
        XX     -48.4762     XY       3.5283     YY     -50.4023
        XZ       0.1895     YZ       1.2849     ZZ     -47.7703

 Total job time:  167.34s(wall), 165.75s(cpu)
        *  Thank you very much for using Q-Chem.  Have a nice day.  *
