 Q-Chem 5.4, Q-Chem, Inc., Pleasanton, CA (2021)
 Q-Chem 5.4.0 for Intel X86 EM64T Linux

User input:
--------------------------------------------------------------
$molecule
0 1
C	-0.334499	-0.485419	0.016441
C	0.097301	0.262481	1.115841
C	0.789301	1.460981	0.793141
H	-0.087099	-0.056919	2.152541
C	0.899601	1.652081	-0.596059
S	0.136701	0.330681	-1.470359
C	1.333201	2.402981	1.831041
H	1.120401	2.034381	2.853141
H	0.887501	3.415781	1.742641
H	2.433201	2.523381	1.742641
C	-0.334499	-1.926119	0.016441
H	-1.398099	-1.926319	-0.171259
H	-0.476799	-2.629919	0.823141
H	-0.169999	-2.445019	-0.916259
H	1.374301	2.474081	-1.145159
$end

$rem
JOBTYPE		SP
EXCHANGE	HF
CORRELATION	pRIMP2
BASIS		cc-pvtz
METHOD		rimp2
AUX_BASIS	rimp2-cc-pvtz
SOLVENT_METHOD	PCM
PURECART	11111
SYMMETRY	false
MEM_TOTAL	110000
SCF_CONVERGENCE = 6
THRESH=10
$end

$solvent
dielectric 4.90
$end
--------------------------------------------------------------

   10    -629.3990222250      5.61e-07  Convergence criterion met
 Total energy in the final basis set =     -629.3990222250
        RIMP2         total energy =      -630.5802317271 a.u.
 Total job time:  157.49s(wall), 154.83s(cpu)
        *  Thank you very much for using Q-Chem.  Have a nice day.  *
 Q-Chem 5.4, Q-Chem, Inc., Pleasanton, CA (2021)
 Q-Chem 5.4.0 for Intel X86 EM64T Linux

User input:
--------------------------------------------------------------
$molecule
0 1
C	-0.334499	-0.485419	0.016441
C	0.097301	0.262481	1.115841
C	0.789301	1.460981	0.793141
H	-0.087099	-0.056919	2.152541
C	0.899601	1.652081	-0.596059
S	0.136701	0.330681	-1.470359
C	1.333201	2.402981	1.831041
H	1.120401	2.034381	2.853141
H	0.887501	3.415781	1.742641
H	2.433201	2.523381	1.742641
C	-0.334499	-1.926119	0.016441
H	-1.398099	-1.926319	-0.171259
H	-0.476799	-2.629919	0.823141
H	-0.169999	-2.445019	-0.916259
H	1.374301	2.474081	-1.145159
$end

$rem
JOBTYPE		SP
EXCHANGE	HF
CORRELATION	pRIMP2
BASIS		cc-pvtz
METHOD		rimp2
AUX_BASIS	rimp2-cc-pvtz
SOLVENT_METHOD	PCM
PURECART	11111
SYMMETRY	false
MEM_TOTAL	110000
SCF_CONVERGENCE = 6
THRESH=10
$end

$solvent
dielectric 4.90
$end
--------------------------------------------------------------

             Standard Nuclear Orientation (Angstroms)
    I     Atom           X                Y                Z
 ----------------------------------------------------------------
    1      C      -0.3344990000    -0.4854190000     0.0164410000
    2      C       0.0973010000     0.2624810000     1.1158410000
    3      C       0.7893010000     1.4609810000     0.7931410000
    4      H      -0.0870990000    -0.0569190000     2.1525410000
    5      C       0.8996010000     1.6520810000    -0.5960590000
    6      S       0.1367010000     0.3306810000    -1.4703590000
    7      C       1.3332010000     2.4029810000     1.8310410000
    8      H       1.1204010000     2.0343810000     2.8531410000
    9      H       0.8875010000     3.4157810000     1.7426410000
   10      H       2.4332010000     2.5233810000     1.7426410000
   11      C      -0.3344990000    -1.9261190000     0.0164410000
   12      H      -1.3980990000    -1.9263190000    -0.1712590000
   13      H      -0.4767990000    -2.6299190000     0.8231410000
   14      H      -0.1699990000    -2.4450190000    -0.9162590000
   15      H       1.3743010000     2.4740810000    -1.1451590000
 ----------------------------------------------------------------

   10    -629.3990222250      5.61e-07  Convergence criterion met
 Total energy in the final basis set =     -629.3990222250
        RIMP2         total energy =      -630.5802317271 a.u.

                    Orbital Energies (a.u.)
 --------------------------------------------------------------

 Alpha MOs
 -- Occupied --
-91.9773 -11.2749 -11.2558 -11.2470 -11.2284 -11.2266 -11.2154  -8.9774
 -6.6583  -6.6577  -6.6571  -1.1617  -1.0547  -0.9959  -0.9428  -0.8821
 -0.7452  -0.7201  -0.6464  -0.5856  -0.5733  -0.5686  -0.5534  -0.5452
 -0.5112  -0.4925  -0.4574  -0.4522  -0.3376  -0.2868

          Ground-State Mulliken Net Atomic Charges

     Atom                 Charge (a.u.)
  ----------------------------------------
      1 C                     0.013096
      2 C                    -0.267082
      3 C                     0.045796
      4 H                     0.179024
      5 C                    -0.263907
      6 S                     0.002393
      7 C                    -0.271061
      8 H                     0.101389
      9 H                     0.107082
     10 H                     0.106199
     11 C                    -0.379026
     12 H                     0.131770
     13 H                     0.159632
     14 H                     0.140727
     15 H                     0.193969
  ----------------------------------------
  Sum of atomic charges =     0.000000

                    Cartesian Multipole Moments
 -----------------------------------------------------------------
    Charge (ESU x 10^10)
                -0.0000
    Dipole Moment (Debye)
         X       0.0438      Y      -0.3876      Z       1.3579
       Tot       1.4128
    Quadrupole Moments (Debye-Ang)
        XX     -51.9628     XY       5.2844     YY     -44.4715
        XZ      -0.0501     YZ       0.2845     ZZ     -48.3428

 Total job time:  155.60s(wall), 154.91s(cpu)
        *  Thank you very much for using Q-Chem.  Have a nice day.  *
