 Q-Chem 5.4, Q-Chem, Inc., Pleasanton, CA (2021)
 Q-Chem 5.4.0 for Intel X86 EM64T Linux

User input:
--------------------------------------------------------------
$molecule
0 1
C	-0.122663	-0.566010	0.015606
C	0.027337	0.284490	1.115006
C	0.267637	1.647390	0.792306
H	-0.036763	-0.078710	2.151706
C	0.306037	1.864690	-0.596894
S	0.041037	0.362090	-1.471194
C	0.456537	2.718590	1.830206
H	0.382637	2.299390	2.852306
H	-0.308663	3.517890	1.741806
H	1.449037	3.207890	1.741806
C	-0.122663	-2.006710	0.015606
H	0.957337	-2.006410	0.015706
H	-0.122763	-2.710510	0.834806
H	-0.122663	-2.525610	-0.931494
H	0.470837	2.799390	-1.145994
$end

$rem
JOBTYPE		SP
EXCHANGE	HF
CORRELATION	pRIMP2
BASIS		cc-pvtz
METHOD		rimp2
AUX_BASIS	rimp2-cc-pvtz
SOLVENT_METHOD	PCM
PURECART	11111
SYMMETRY	false
MEM_TOTAL	110000
SCF_CONVERGENCE = 6
THRESH=10
$end

$solvent
dielectric 4.90
$end
--------------------------------------------------------------

   10    -629.4238108408      7.18e-07  Convergence criterion met
 Total energy in the final basis set =     -629.4238108408
        RIMP2         total energy =      -630.5989040228 a.u.
 Total job time:  158.39s(wall), 156.27s(cpu)
        *  Thank you very much for using Q-Chem.  Have a nice day.  *
 Q-Chem 5.4, Q-Chem, Inc., Pleasanton, CA (2021)
 Q-Chem 5.4.0 for Intel X86 EM64T Linux

User input:
--------------------------------------------------------------
$molecule
0 1
C	-0.122663	-0.566010	0.015606
C	0.027337	0.284490	1.115006
C	0.267637	1.647390	0.792306
H	-0.036763	-0.078710	2.151706
C	0.306037	1.864690	-0.596894
S	0.041037	0.362090	-1.471194
C	0.456537	2.718590	1.830206
H	0.382637	2.299390	2.852306
H	-0.308663	3.517890	1.741806
H	1.449037	3.207890	1.741806
C	-0.122663	-2.006710	0.015606
H	0.957337	-2.006410	0.015706
H	-0.122763	-2.710510	0.834806
H	-0.122663	-2.525610	-0.931494
H	0.470837	2.799390	-1.145994
$end

$rem
JOBTYPE		SP
EXCHANGE	HF
CORRELATION	pRIMP2
BASIS		cc-pvtz
METHOD		rimp2
AUX_BASIS	rimp2-cc-pvtz
SOLVENT_METHOD	PCM
PURECART	11111
SYMMETRY	false
MEM_TOTAL	110000
SCF_CONVERGENCE = 6
THRESH=10
$end

$solvent
dielectric 4.90
$end
--------------------------------------------------------------

             Standard Nuclear Orientation (Angstroms)
    I     Atom           X                Y                Z
 ----------------------------------------------------------------
    1      C      -0.1226630000    -0.5660100000     0.0156060000
    2      C       0.0273370000     0.2844900000     1.1150060000
    3      C       0.2676370000     1.6473900000     0.7923060000
    4      H      -0.0367630000    -0.0787100000     2.1517060000
    5      C       0.3060370000     1.8646900000    -0.5968940000
    6      S       0.0410370000     0.3620900000    -1.4711940000
    7      C       0.4565370000     2.7185900000     1.8302060000
    8      H       0.3826370000     2.2993900000     2.8523060000
    9      H      -0.3086630000     3.5178900000     1.7418060000
   10      H       1.4490370000     3.2078900000     1.7418060000
   11      C      -0.1226630000    -2.0067100000     0.0156060000
   12      H       0.9573370000    -2.0064100000     0.0157060000
   13      H      -0.1227630000    -2.7105100000     0.8348060000
   14      H      -0.1226630000    -2.5256100000    -0.9314940000
   15      H       0.4708370000     2.7993900000    -1.1459940000
 ----------------------------------------------------------------

   10    -629.4238108408      7.18e-07  Convergence criterion met
 Total energy in the final basis set =     -629.4238108408
        RIMP2         total energy =      -630.5989040228 a.u.

                    Orbital Energies (a.u.)
 --------------------------------------------------------------

 Alpha MOs
 -- Occupied --
-91.9791 -11.2860 -11.2486 -11.2469 -11.2263 -11.2229 -11.2216  -8.9789
 -6.6599  -6.6593  -6.6587  -1.1608  -1.0566  -0.9970  -0.9422  -0.8823
 -0.7440  -0.7186  -0.6497  -0.5866  -0.5759  -0.5667  -0.5541  -0.5466
 -0.5065  -0.4947  -0.4666  -0.4575  -0.3387  -0.2881

          Ground-State Mulliken Net Atomic Charges

     Atom                 Charge (a.u.)
  ----------------------------------------
      1 C                     0.064669
      2 C                    -0.317389
      3 C                     0.056665
      4 H                     0.174785
      5 C                    -0.284737
      6 S                     0.003405
      7 C                    -0.273565
      8 H                     0.101365
      9 H                     0.107279
     10 H                     0.107292
     11 C                    -0.380965
     12 H                     0.147729
     13 H                     0.164088
     14 H                     0.136348
     15 H                     0.193032
  ----------------------------------------
  Sum of atomic charges =     0.000000

                    Cartesian Multipole Moments
 -----------------------------------------------------------------
    Charge (ESU x 10^10)
                -0.0000
    Dipole Moment (Debye)
         X       0.9257      Y      -0.7762      Z       1.3804
       Tot       1.8344
    Quadrupole Moments (Debye-Ang)
        XX     -54.3275     XY      -0.0058     YY     -41.9682
        XZ       0.1160     YZ       0.1749     ZZ     -48.5888

 Total job time:  156.33s(wall), 154.71s(cpu)
        *  Thank you very much for using Q-Chem.  Have a nice day.  *
