 Q-Chem 5.4, Q-Chem, Inc., Pleasanton, CA (2021)
 Q-Chem 5.4.0 for Intel X86 EM64T Linux

User input:
--------------------------------------------------------------
$molecule
0 1
C	-0.440919	-0.417594	0.015308
C	0.114181	0.243906	1.114708
C	1.003781	1.304106	0.792008
H	-0.122819	-0.038594	2.151408
C	1.145681	1.473106	-0.597192
S	0.164881	0.304306	-1.471492
C	1.702981	2.137306	1.829908
H	1.429381	1.811306	2.852008
H	1.439981	3.212106	1.741508
H	2.807181	2.064906	1.741508
C	-0.440919	-1.858294	0.015308
H	0.622681	-1.858494	-0.172092
H	-0.583119	-2.562094	-0.791492
H	-0.276419	-2.377194	0.948008
H	1.755781	2.200206	-1.146292
$end

$rem
JOBTYPE		SP
EXCHANGE	HF
CORRELATION	pRIMP2
BASIS		cc-pvtz
METHOD		rimp2
AUX_BASIS	rimp2-cc-pvtz
SOLVENT_METHOD	PCM
PURECART	11111
SYMMETRY	false
MEM_TOTAL	110000
SCF_CONVERGENCE = 6
THRESH=10
$end

$solvent
dielectric 4.90
$end
--------------------------------------------------------------

             Standard Nuclear Orientation (Angstroms)
    I     Atom           X                Y                Z
 ----------------------------------------------------------------
    1      C      -0.4409190000    -0.4175940000     0.0153080000
    2      C       0.1141810000     0.2439060000     1.1147080000
    3      C       1.0037810000     1.3041060000     0.7920080000
    4      H      -0.1228190000    -0.0385940000     2.1514080000
    5      C       1.1456810000     1.4731060000    -0.5971920000
    6      S       0.1648810000     0.3043060000    -1.4714920000
    7      C       1.7029810000     2.1373060000     1.8299080000
    8      H       1.4293810000     1.8113060000     2.8520080000
    9      H       1.4399810000     3.2121060000     1.7415080000
   10      H       2.8071810000     2.0649060000     1.7415080000
   11      C      -0.4409190000    -1.8582940000     0.0153080000
   12      H       0.6226810000    -1.8584940000    -0.1720920000
   13      H      -0.5831190000    -2.5620940000    -0.7914920000
   14      H      -0.2764190000    -2.3771940000     0.9480080000
   15      H       1.7557810000     2.2002060000    -1.1462920000
 ----------------------------------------------------------------

   10    -629.3949281013      6.08e-07  Convergence criterion met
 Total energy in the final basis set =     -629.3949281013
        RIMP2         total energy =      -630.5773681946 a.u.

                    Orbital Energies (a.u.)
 --------------------------------------------------------------

 Alpha MOs
 -- Occupied --
-91.9746 -11.2761 -11.2601 -11.2488 -11.2314 -11.2277 -11.2192  -8.9753
 -6.6562  -6.6556  -6.6550  -1.1677  -1.0574  -0.9965  -0.9401  -0.8813
 -0.7472  -0.7229  -0.6453  -0.5878  -0.5832  -0.5671  -0.5516  -0.5464
 -0.5082  -0.4948  -0.4606  -0.4504  -0.3398  -0.2880

          Ground-State Mulliken Net Atomic Charges

     Atom                 Charge (a.u.)
  ----------------------------------------
      1 C                     0.027162
      2 C                    -0.283539
      3 C                     0.047100
      4 H                     0.177383
      5 C                    -0.256098
      6 S                    -0.003117
      7 C                    -0.269289
      8 H                     0.101823
      9 H                     0.107928
     10 H                     0.106231
     11 C                    -0.368203
     12 H                     0.141623
     13 H                     0.147931
     14 H                     0.129539
     15 H                     0.193527
  ----------------------------------------
  Sum of atomic charges =     0.000000

                    Cartesian Multipole Moments
 -----------------------------------------------------------------
    Charge (ESU x 10^10)
                -0.0000
    Dipole Moment (Debye)
         X       1.6810      Y      -0.4326      Z       1.4561
       Tot       2.2656
    Quadrupole Moments (Debye-Ang)
        XX     -51.5910     XY       3.4215     YY     -45.9831
        XZ       0.2499     YZ       0.4597     ZZ     -48.3987

 Total job time:  161.46s(wall), 160.05s(cpu)
        *  Thank you very much for using Q-Chem.  Have a nice day.  *
