 Q-Chem 5.4, Q-Chem, Inc., Pleasanton, CA (2021)
 Q-Chem 5.4.0 for Intel X86 EM64T Linux

User input:
--------------------------------------------------------------
$molecule
0 1
C	-0.055585	-0.573727	0.011685
C	0.019715	0.286573	1.111085
C	0.140315	1.665273	0.788385
H	-0.012385	-0.080827	2.147785
C	0.159615	1.885073	-0.600815
S	0.026615	0.365073	-1.475115
C	0.235215	2.748873	1.826285
H	0.198115	2.324773	2.848385
H	-0.596785	3.478373	1.737885
H	1.181215	3.322873	1.737885
C	-0.055585	-2.014427	0.011685
H	-0.749885	-2.014627	0.838985
H	0.571915	-2.718227	0.538285
H	-0.781185	-2.533327	-0.597115
H	0.242315	2.830673	-1.149915
$end

$rem
JOBTYPE		SP
EXCHANGE	HF
CORRELATION	pRIMP2
BASIS		cc-pvtz
METHOD		rimp2
AUX_BASIS	rimp2-cc-pvtz
SOLVENT_METHOD	PCM
PURECART	11111
SYMMETRY	false
MEM_TOTAL	110000
SCF_CONVERGENCE = 6
THRESH=10
$end

$solvent
dielectric 4.90
$end
--------------------------------------------------------------

             Standard Nuclear Orientation (Angstroms)
    I     Atom           X                Y                Z
 ----------------------------------------------------------------
    1      C      -0.0555850000    -0.5737270000     0.0116850000
    2      C       0.0197150000     0.2865730000     1.1110850000
    3      C       0.1403150000     1.6652730000     0.7883850000
    4      H      -0.0123850000    -0.0808270000     2.1477850000
    5      C       0.1596150000     1.8850730000    -0.6008150000
    6      S       0.0266150000     0.3650730000    -1.4751150000
    7      C       0.2352150000     2.7488730000     1.8262850000
    8      H       0.1981150000     2.3247730000     2.8483850000
    9      H      -0.5967850000     3.4783730000     1.7378850000
   10      H       1.1812150000     3.3228730000     1.7378850000
   11      C      -0.0555850000    -2.0144270000     0.0116850000
   12      H      -0.7498850000    -2.0146270000     0.8389850000
   13      H       0.5719150000    -2.7182270000     0.5382850000
   14      H      -0.7811850000    -2.5333270000    -0.5971150000
   15      H       0.2423150000     2.8306730000    -1.1499150000
 ----------------------------------------------------------------

   10    -629.4235434473      5.53e-07  Convergence criterion met
 Total energy in the final basis set =     -629.4235434473
        RIMP2         total energy =      -630.6010169077 a.u.

                    Orbital Energies (a.u.)
 --------------------------------------------------------------

 Alpha MOs
 -- Occupied --
-91.9767 -11.2802 -11.2537 -11.2472 -11.2296 -11.2270 -11.2179  -8.9766
 -6.6576  -6.6570  -6.6564  -1.1604  -1.0545  -0.9988  -0.9404  -0.8839
 -0.7424  -0.7219  -0.6495  -0.5891  -0.5752  -0.5654  -0.5603  -0.5431
 -0.5094  -0.4889  -0.4662  -0.4458  -0.3374  -0.2970

          Ground-State Mulliken Net Atomic Charges

     Atom                 Charge (a.u.)
  ----------------------------------------
      1 C                     0.065614
      2 C                    -0.281768
      3 C                     0.037546
      4 H                     0.177371
      5 C                    -0.262571
      6 S                    -0.004966
      7 C                    -0.274837
      8 H                     0.101176
      9 H                     0.107088
     10 H                     0.107349
     11 C                    -0.378585
     12 H                     0.129727
     13 H                     0.147026
     14 H                     0.137106
     15 H                     0.192725
  ----------------------------------------
  Sum of atomic charges =     0.000000

                    Cartesian Multipole Moments
 -----------------------------------------------------------------
    Charge (ESU x 10^10)
                -0.0000
    Dipole Moment (Debye)
         X      -0.3406      Y      -0.3176      Z       1.9752
       Tot       2.0294
    Quadrupole Moments (Debye-Ang)
        XX     -53.8616     XY       1.7164     YY     -42.1534
        XZ       0.2981     YZ      -0.8701     ZZ     -48.7489

 Total job time:  161.93s(wall), 159.97s(cpu)
        *  Thank you very much for using Q-Chem.  Have a nice day.  *
