 Q-Chem 5.4, Q-Chem, Inc., Pleasanton, CA (2021)
 Q-Chem 5.4.0 for Intel X86 EM64T Linux

User input:
--------------------------------------------------------------
$molecule
0 1
C	-0.338603	-0.485421	0.019883
C	0.093197	0.262479	1.119283
C	0.785197	1.460979	0.796583
H	-0.091203	-0.056921	2.155983
C	0.895497	1.652079	-0.592617
S	0.132597	0.330679	-1.466917
C	1.329097	2.402979	1.834483
H	1.116297	2.034379	2.856583
H	0.883397	3.415779	1.746083
H	2.429097	2.523379	1.746083
C	-0.338603	-1.926121	0.019883
H	-0.338503	-1.925821	-1.060117
H	0.480597	-2.629921	0.019983
H	-1.285703	-2.445021	0.019883
H	1.370197	2.474079	-1.141717
$end

$rem
JOBTYPE		SP
EXCHANGE	HF
CORRELATION	pRIMP2
BASIS		cc-pvtz
METHOD		rimp2
AUX_BASIS	rimp2-cc-pvtz
SOLVENT_METHOD	PCM
PURECART	11111
SYMMETRY	false
MEM_TOTAL	110000
SCF_CONVERGENCE = 6
THRESH=10
$end

$solvent
dielectric 4.90
$end
--------------------------------------------------------------

             Standard Nuclear Orientation (Angstroms)
    I     Atom           X                Y                Z
 ----------------------------------------------------------------
    1      C      -0.3386030000    -0.4854210000     0.0198830000
    2      C       0.0931970000     0.2624790000     1.1192830000
    3      C       0.7851970000     1.4609790000     0.7965830000
    4      H      -0.0912030000    -0.0569210000     2.1559830000
    5      C       0.8954970000     1.6520790000    -0.5926170000
    6      S       0.1325970000     0.3306790000    -1.4669170000
    7      C       1.3290970000     2.4029790000     1.8344830000
    8      H       1.1162970000     2.0343790000     2.8565830000
    9      H       0.8833970000     3.4157790000     1.7460830000
   10      H       2.4290970000     2.5233790000     1.7460830000
   11      C      -0.3386030000    -1.9261210000     0.0198830000
   12      H      -0.3385030000    -1.9258210000    -1.0601170000
   13      H       0.4805970000    -2.6299210000     0.0199830000
   14      H      -1.2857030000    -2.4450210000     0.0198830000
   15      H       1.3701970000     2.4740790000    -1.1417170000
 ----------------------------------------------------------------

   10    -629.4004418298      5.50e-07  Convergence criterion met
 Total energy in the final basis set =     -629.4004418298
        RIMP2         total energy =      -630.5826540878 a.u.

                    Orbital Energies (a.u.)
 --------------------------------------------------------------

 Alpha MOs
 -- Occupied --
-91.9787 -11.2657 -11.2644 -11.2473 -11.2351 -11.2272 -11.2123  -8.9789
 -6.6598  -6.6592  -6.6586  -1.1636  -1.0549  -0.9946  -0.9458  -0.8808
 -0.7496  -0.7207  -0.6466  -0.5886  -0.5771  -0.5681  -0.5518  -0.5473
 -0.5133  -0.4746  -0.4646  -0.4415  -0.3368  -0.3047

          Ground-State Mulliken Net Atomic Charges

     Atom                 Charge (a.u.)
  ----------------------------------------
      1 C                     0.004137
      2 C                    -0.245484
      3 C                     0.040665
      4 H                     0.179433
      5 C                    -0.243906
      6 S                    -0.001449
      7 C                    -0.271342
      8 H                     0.102037
      9 H                     0.106825
     10 H                     0.105898
     11 C                    -0.355390
     12 H                     0.113111
     13 H                     0.148047
     14 H                     0.121481
     15 H                     0.195937
  ----------------------------------------
  Sum of atomic charges =     0.000000

                    Cartesian Multipole Moments
 -----------------------------------------------------------------
    Charge (ESU x 10^10)
                -0.0000
    Dipole Moment (Debye)
         X       0.9424      Y       0.2408      Z       0.9472
       Tot       1.3577
    Quadrupole Moments (Debye-Ang)
        XX     -51.6892     XY       3.7417     YY     -44.8537
        XZ       0.1695     YZ       1.2957     ZZ     -48.6183

 Total job time:  156.78s(wall), 156.17s(cpu)
        *  Thank you very much for using Q-Chem.  Have a nice day.  *
