 Q-Chem 5.4, Q-Chem, Inc., Pleasanton, CA (2021)
 Q-Chem 5.4.0 for Intel X86 EM64T Linux

User input:
--------------------------------------------------------------
$molecule
0 1
C	-0.281817	-0.512744	0.014756
C	0.083183	0.269956	1.114156
C	0.668083	1.524156	0.791456
H	-0.072717	-0.064344	2.150856
C	0.761383	1.724156	-0.597744
S	0.116483	0.341356	-1.472044
C	1.127783	2.509956	1.829356
H	0.947883	2.124256	2.851456
H	0.595483	3.480156	1.740956
H	2.213083	2.725856	1.740956
C	-0.281817	-1.953444	0.014756
H	-1.345417	-1.953644	0.202156
H	-0.139617	-2.657244	0.821556
H	-0.446317	-2.472344	-0.917944
H	1.162483	2.584456	-1.146844
$end

$rem
JOBTYPE		SP
EXCHANGE	HF
CORRELATION	pRIMP2
BASIS		cc-pvtz
METHOD		rimp2
AUX_BASIS	rimp2-cc-pvtz
SOLVENT_METHOD	PCM
PURECART	11111
SYMMETRY	false
MEM_TOTAL	110000
SCF_CONVERGENCE = 6
THRESH=10
$end

$solvent
dielectric 4.90
$end
--------------------------------------------------------------

             Standard Nuclear Orientation (Angstroms)
    I     Atom           X                Y                Z
 ----------------------------------------------------------------
    1      C      -0.2818170000    -0.5127440000     0.0147560000
    2      C       0.0831830000     0.2699560000     1.1141560000
    3      C       0.6680830000     1.5241560000     0.7914560000
    4      H      -0.0727170000    -0.0643440000     2.1508560000
    5      C       0.7613830000     1.7241560000    -0.5977440000
    6      S       0.1164830000     0.3413560000    -1.4720440000
    7      C       1.1277830000     2.5099560000     1.8293560000
    8      H       0.9478830000     2.1242560000     2.8514560000
    9      H       0.5954830000     3.4801560000     1.7409560000
   10      H       2.2130830000     2.7258560000     1.7409560000
   11      C      -0.2818170000    -1.9534440000     0.0147560000
   12      H      -1.3454170000    -1.9536440000     0.2021560000
   13      H      -0.1396170000    -2.6572440000     0.8215560000
   14      H      -0.4463170000    -2.4723440000    -0.9179440000
   15      H       1.1624830000     2.5844560000    -1.1468440000
 ----------------------------------------------------------------

   10    -629.4066527293      6.01e-07  Convergence criterion met
 Total energy in the final basis set =     -629.4066527293
        RIMP2         total energy =      -630.5865863758 a.u.

                    Orbital Energies (a.u.)
 --------------------------------------------------------------

 Alpha MOs
 -- Occupied --
-91.9771 -11.2780 -11.2534 -11.2472 -11.2275 -11.2266 -11.2172  -8.9771
 -6.6580  -6.6574  -6.6568  -1.1610  -1.0548  -0.9968  -0.9419  -0.8827
 -0.7440  -0.7202  -0.6477  -0.5850  -0.5738  -0.5670  -0.5560  -0.5447
 -0.5107  -0.4942  -0.4589  -0.4519  -0.3375  -0.2874

          Ground-State Mulliken Net Atomic Charges

     Atom                 Charge (a.u.)
  ----------------------------------------
      1 C                     0.036227
      2 C                    -0.295267
      3 C                     0.052397
      4 H                     0.175620
      5 C                    -0.269664
      6 S                     0.006044
      7 C                    -0.271180
      8 H                     0.101448
      9 H                     0.107070
     10 H                     0.106714
     11 C                    -0.377811
     12 H                     0.135628
     13 H                     0.162937
     14 H                     0.137512
     15 H                     0.192326
  ----------------------------------------
  Sum of atomic charges =     0.000000

                    Cartesian Multipole Moments
 -----------------------------------------------------------------
    Charge (ESU x 10^10)
                -0.0000
    Dipole Moment (Debye)
         X      -0.1510      Y      -0.4840      Z       1.5756
       Tot       1.6552
    Quadrupole Moments (Debye-Ang)
        XX     -52.5660     XY       4.8684     YY     -43.7300
        XZ       0.1529     YZ      -0.1191     ZZ     -48.4091

 Total job time:  156.87s(wall), 155.12s(cpu)
        *  Thank you very much for using Q-Chem.  Have a nice day.  *
