 Q-Chem 5.4, Q-Chem, Inc., Pleasanton, CA (2021)
 Q-Chem 5.4.0 for Intel X86 EM64T Linux

User input:
--------------------------------------------------------------
$molecule
0 1
C	-0.522321	-0.333972	0.010945
C	0.139279	0.221128	1.110345
C	1.199379	1.110628	0.787645
H	-0.143221	-0.015972	2.147045
C	1.368479	1.252428	-0.601555
S	0.199579	0.271728	-1.475855
C	2.032679	1.809828	1.825545
H	1.706579	1.536228	2.847645
H	1.960279	2.914028	1.737145
H	3.107479	1.546728	1.737145
C	-0.522321	-1.774672	0.010945
H	0.171779	-1.774872	0.838345
H	0.105279	-2.478472	-0.515555
H	-1.247821	-2.293572	0.619745
H	2.095579	1.862628	-1.150655
$end

$rem
JOBTYPE		SP
EXCHANGE	HF
CORRELATION	pRIMP2
BASIS		cc-pvtz
METHOD		rimp2
AUX_BASIS	rimp2-cc-pvtz
SOLVENT_METHOD	PCM
PURECART	11111
SYMMETRY	false
MEM_TOTAL	110000
SCF_CONVERGENCE = 6
THRESH=10
$end

$solvent
dielectric 4.90
$end
--------------------------------------------------------------

             Standard Nuclear Orientation (Angstroms)
    I     Atom           X                Y                Z
 ----------------------------------------------------------------
    1      C      -0.5223210000    -0.3339720000     0.0109450000
    2      C       0.1392790000     0.2211280000     1.1103450000
    3      C       1.1993790000     1.1106280000     0.7876450000
    4      H      -0.1432210000    -0.0159720000     2.1470450000
    5      C       1.3684790000     1.2524280000    -0.6015550000
    6      S       0.1995790000     0.2717280000    -1.4758550000
    7      C       2.0326790000     1.8098280000     1.8255450000
    8      H       1.7065790000     1.5362280000     2.8476450000
    9      H       1.9602790000     2.9140280000     1.7371450000
   10      H       3.1074790000     1.5467280000     1.7371450000
   11      C      -0.5223210000    -1.7746720000     0.0109450000
   12      H       0.1717790000    -1.7748720000     0.8383450000
   13      H       0.1052790000    -2.4784720000    -0.5155550000
   14      H      -1.2478210000    -2.2935720000     0.6197450000
   15      H       2.0955790000     1.8626280000    -1.1506550000
 ----------------------------------------------------------------

   11    -629.3604451743      4.76e-07  Convergence criterion met
 Total energy in the final basis set =     -629.3604451743
        RIMP2         total energy =      -630.5512400642 a.u.

                    Orbital Energies (a.u.)
 --------------------------------------------------------------

 Alpha MOs
 -- Occupied --
-91.9781 -11.2701 -11.2590 -11.2488 -11.2410 -11.2285 -11.2075  -8.9782
 -6.6591  -6.6583  -6.6580  -1.1710  -1.0558  -1.0005  -0.9344  -0.8823
 -0.7458  -0.7296  -0.6441  -0.5889  -0.5787  -0.5741  -0.5539  -0.5441
 -0.5161  -0.4737  -0.4552  -0.4478  -0.3318  -0.2921

          Ground-State Mulliken Net Atomic Charges

     Atom                 Charge (a.u.)
  ----------------------------------------
      1 C                    -0.056655
      2 C                    -0.169900
      3 C                    -0.005402
      4 H                     0.180681
      5 C                    -0.220975
      6 S                     0.017258
      7 C                    -0.268400
      8 H                     0.101649
      9 H                     0.107086
     10 H                     0.104511
     11 C                    -0.384825
     12 H                     0.134588
     13 H                     0.154315
     14 H                     0.110614
     15 H                     0.195454
  ----------------------------------------
  Sum of atomic charges =     0.000000

                    Cartesian Multipole Moments
 -----------------------------------------------------------------
    Charge (ESU x 10^10)
                -0.0000
    Dipole Moment (Debye)
         X       2.1190      Y       0.0381      Z       2.0233
       Tot       2.9301
    Quadrupole Moments (Debye-Ang)
        XX     -49.8555     XY       3.5609     YY     -48.5136
        XZ      -0.5353     YZ      -0.7377     ZZ     -47.9659

 Total job time:  176.52s(wall), 174.41s(cpu)
        *  Thank you very much for using Q-Chem.  Have a nice day.  *
