 Q-Chem 5.4, Q-Chem, Inc., Pleasanton, CA (2021)
 Q-Chem 5.4.0 for Intel X86 EM64T Linux

User input:
--------------------------------------------------------------
$molecule
0 1
C	-0.177773	-0.553191	0.010669
C	0.045727	0.281009	1.110069
C	0.403927	1.617709	0.787369
H	-0.049673	-0.075291	2.146769
C	0.461127	1.830809	-0.601831
S	0.066127	0.357109	-1.476131
C	0.685527	2.668409	1.825269
H	0.575327	2.257309	2.847369
H	-0.007073	3.531409	1.736869
H	1.716827	3.069409	1.736869
C	-0.177773	-1.993891	0.010669
H	0.191527	-1.993591	1.025569
H	-0.947573	-2.697691	0.290769
H	0.712227	-2.512791	-0.313231
H	0.706827	2.747709	-1.150931
$end

$rem
JOBTYPE		SP
EXCHANGE	HF
CORRELATION	pRIMP2
BASIS		cc-pvtz
METHOD		rimp2
AUX_BASIS	rimp2-cc-pvtz
SOLVENT_METHOD	PCM
PURECART	11111
SYMMETRY	false
MEM_TOTAL	110000
SCF_CONVERGENCE = 6
THRESH=10
$end

$solvent
dielectric 4.90
$end
--------------------------------------------------------------

             Standard Nuclear Orientation (Angstroms)
    I     Atom           X                Y                Z
 ----------------------------------------------------------------
    1      C      -0.1777730000    -0.5531910000     0.0106690000
    2      C       0.0457270000     0.2810090000     1.1100690000
    3      C       0.4039270000     1.6177090000     0.7873690000
    4      H      -0.0496730000    -0.0752910000     2.1467690000
    5      C       0.4611270000     1.8308090000    -0.6018310000
    6      S       0.0661270000     0.3571090000    -1.4761310000
    7      C       0.6855270000     2.6684090000     1.8252690000
    8      H       0.5753270000     2.2573090000     2.8473690000
    9      H      -0.0070730000     3.5314090000     1.7368690000
   10      H       1.7168270000     3.0694090000     1.7368690000
   11      C      -0.1777730000    -1.9938910000     0.0106690000
   12      H       0.1915270000    -1.9935910000     1.0255690000
   13      H      -0.9475730000    -2.6976910000     0.2907690000
   14      H       0.7122270000    -2.5127910000    -0.3132310000
   15      H       0.7068270000     2.7477090000    -1.1509310000
 ----------------------------------------------------------------

   10    -629.4197939631      5.00e-07  Convergence criterion met
 Total energy in the final basis set =     -629.4197939631
        RIMP2         total energy =      -630.5984612674 a.u.

                    Orbital Energies (a.u.)
 --------------------------------------------------------------

 Alpha MOs
 -- Occupied --
-91.9758 -11.2773 -11.2570 -11.2470 -11.2331 -11.2274 -11.2159  -8.9758
 -6.6568  -6.6562  -6.6557  -1.1617  -1.0542  -0.9994  -0.9392  -0.8840
 -0.7424  -0.7241  -0.6484  -0.5914  -0.5770  -0.5663  -0.5593  -0.5422
 -0.5103  -0.4835  -0.4682  -0.4407  -0.3370  -0.3018

          Ground-State Mulliken Net Atomic Charges

     Atom                 Charge (a.u.)
  ----------------------------------------
      1 C                     0.055148
      2 C                    -0.269264
      3 C                     0.032910
      4 H                     0.176551
      5 C                    -0.251946
      6 S                    -0.006572
      7 C                    -0.272875
      8 H                     0.101128
      9 H                     0.107183
     10 H                     0.107066
     11 C                    -0.378097
     12 H                     0.127515
     13 H                     0.144954
     14 H                     0.133483
     15 H                     0.192817
  ----------------------------------------
  Sum of atomic charges =     0.000000

                    Cartesian Multipole Moments
 -----------------------------------------------------------------
    Charge (ESU x 10^10)
                -0.0000
    Dipole Moment (Debye)
         X       0.6270      Y      -0.1224      Z       2.1063
       Tot       2.2010
    Quadrupole Moments (Debye-Ang)
        XX     -53.3200     XY       1.7554     YY     -42.8986
        XZ      -0.2461     YZ      -1.0645     ZZ     -48.8345

 Total job time:  156.26s(wall), 155.24s(cpu)
        *  Thank you very much for using Q-Chem.  Have a nice day.  *
