 Q-Chem 5.4, Q-Chem, Inc., Pleasanton, CA (2021)
 Q-Chem 5.4.0 for Intel X86 EM64T Linux

User input:
--------------------------------------------------------------
$molecule
0 1
C	-0.522565	-0.333974	0.011118
C	0.139035	0.221126	1.110518
C	1.199135	1.110626	0.787818
H	-0.143465	-0.015974	2.147218
C	1.368235	1.252426	-0.601382
S	0.199335	0.271726	-1.475682
C	2.032435	1.809826	1.825718
H	1.706335	1.536226	2.847818
H	1.960035	2.914026	1.737318
H	3.107235	1.546726	1.737318
C	-0.522565	-1.774674	0.011118
H	0.017335	-1.774374	0.946518
H	-1.232065	-2.478474	0.420618
H	0.297635	-2.293574	-0.462482
H	2.095335	1.862626	-1.150482
$end

$rem
JOBTYPE		SP
EXCHANGE	HF
CORRELATION	pRIMP2
BASIS		cc-pvtz
METHOD		rimp2
AUX_BASIS	rimp2-cc-pvtz
SOLVENT_METHOD	PCM
PURECART	11111
SYMMETRY	false
MEM_TOTAL	110000
SCF_CONVERGENCE = 6
THRESH=10
$end

$solvent
dielectric 4.90
$end
--------------------------------------------------------------

             Standard Nuclear Orientation (Angstroms)
    I     Atom           X                Y                Z
 ----------------------------------------------------------------
    1      C      -0.5225650000    -0.3339740000     0.0111180000
    2      C       0.1390350000     0.2211260000     1.1105180000
    3      C       1.1991350000     1.1106260000     0.7878180000
    4      H      -0.1434650000    -0.0159740000     2.1472180000
    5      C       1.3682350000     1.2524260000    -0.6013820000
    6      S       0.1993350000     0.2717260000    -1.4756820000
    7      C       2.0324350000     1.8098260000     1.8257180000
    8      H       1.7063350000     1.5362260000     2.8478180000
    9      H       1.9600350000     2.9140260000     1.7373180000
   10      H       3.1072350000     1.5467260000     1.7373180000
   11      C      -0.5225650000    -1.7746740000     0.0111180000
   12      H       0.0173350000    -1.7743740000     0.9465180000
   13      H      -1.2320650000    -2.4784740000     0.4206180000
   14      H       0.2976350000    -2.2935740000    -0.4624820000
   15      H       2.0953350000     1.8626260000    -1.1504820000
 ----------------------------------------------------------------

   11    -629.3637554732      4.37e-07  Convergence criterion met
 Total energy in the final basis set =     -629.3637554732
        RIMP2         total energy =      -630.5535686165 a.u.

                    Orbital Energies (a.u.)
 --------------------------------------------------------------

 Alpha MOs
 -- Occupied --
-91.9765 -11.2714 -11.2585 -11.2482 -11.2428 -11.2285 -11.2075  -8.9768
 -6.6576  -6.6569  -6.6566  -1.1711  -1.0558  -1.0004  -0.9346  -0.8820
 -0.7461  -0.7307  -0.6439  -0.5922  -0.5799  -0.5681  -0.5547  -0.5436
 -0.5151  -0.4721  -0.4603  -0.4441  -0.3306  -0.2968

          Ground-State Mulliken Net Atomic Charges

     Atom                 Charge (a.u.)
  ----------------------------------------
      1 C                    -0.052606
      2 C                    -0.170125
      3 C                    -0.004763
      4 H                     0.179559
      5 C                    -0.216350
      6 S                     0.013023
      7 C                    -0.268649
      8 H                     0.101455
      9 H                     0.107042
     10 H                     0.104702
     11 C                    -0.374565
     12 H                     0.129431
     13 H                     0.124519
     14 H                     0.131828
     15 H                     0.195498
  ----------------------------------------
  Sum of atomic charges =     0.000000

                    Cartesian Multipole Moments
 -----------------------------------------------------------------
    Charge (ESU x 10^10)
                -0.0000
    Dipole Moment (Debye)
         X       2.0774      Y       0.0896      Z       2.1222
       Tot       2.9711
    Quadrupole Moments (Debye-Ang)
        XX     -49.6468     XY       3.9067     YY     -48.5842
        XZ      -0.6240     YZ      -0.9682     ZZ     -48.0515

 Total job time:  176.71s(wall), 174.17s(cpu)
        *  Thank you very much for using Q-Chem.  Have a nice day.  *
