 Q-Chem 5.4, Q-Chem, Inc., Pleasanton, CA (2021)
 Q-Chem 5.4.0 for Intel X86 EM64T Linux

User input:
--------------------------------------------------------------
$molecule
0 1
C	-0.174167	-0.553191	0.019710
C	0.049333	0.281009	1.119110
C	0.407533	1.617709	0.796410
H	-0.046067	-0.075291	2.155810
C	0.464733	1.830809	-0.592790
S	0.069733	0.357109	-1.467090
C	0.689133	2.668409	1.834310
H	0.578933	2.257309	2.856410
H	-0.003467	3.531409	1.745910
H	1.720433	3.069409	1.745910
C	-0.174167	-1.993891	0.019710
H	-0.361567	-1.993591	-1.043890
H	0.632633	-2.697691	-0.122490
H	-1.106867	-2.512791	0.184210
H	0.710433	2.747709	-1.141890
$end

$rem
JOBTYPE		SP
EXCHANGE	HF
CORRELATION	pRIMP2
BASIS		cc-pvtz
METHOD		rimp2
AUX_BASIS	rimp2-cc-pvtz
SOLVENT_METHOD	PCM
PURECART	11111
SYMMETRY	false
MEM_TOTAL	110000
SCF_CONVERGENCE = 6
THRESH=10
$end

$solvent
dielectric 4.90
$end
--------------------------------------------------------------

             Standard Nuclear Orientation (Angstroms)
    I     Atom           X                Y                Z
 ----------------------------------------------------------------
    1      C      -0.1741670000    -0.5531910000     0.0197100000
    2      C       0.0493330000     0.2810090000     1.1191100000
    3      C       0.4075330000     1.6177090000     0.7964100000
    4      H      -0.0460670000    -0.0752910000     2.1558100000
    5      C       0.4647330000     1.8308090000    -0.5927900000
    6      S       0.0697330000     0.3571090000    -1.4670900000
    7      C       0.6891330000     2.6684090000     1.8343100000
    8      H       0.5789330000     2.2573090000     2.8564100000
    9      H      -0.0034670000     3.5314090000     1.7459100000
   10      H       1.7204330000     3.0694090000     1.7459100000
   11      C      -0.1741670000    -1.9938910000     0.0197100000
   12      H      -0.3615670000    -1.9935910000    -1.0438900000
   13      H       0.6326330000    -2.6976910000    -0.1224900000
   14      H      -1.1068670000    -2.5127910000     0.1842100000
   15      H       0.7104330000     2.7477090000    -1.1418900000
 ----------------------------------------------------------------

   10    -629.4155851639      5.30e-07  Convergence criterion met
 Total energy in the final basis set =     -629.4155851639
        RIMP2         total energy =      -630.5946326910 a.u.

                    Orbital Energies (a.u.)
 --------------------------------------------------------------

 Alpha MOs
 -- Occupied --
-91.9804 -11.2724 -11.2595 -11.2472 -11.2306 -11.2269 -11.2150  -8.9802
 -6.6611  -6.6606  -6.6600  -1.1614  -1.0548  -0.9953  -0.9462  -0.8817
 -0.7482  -0.7191  -0.6477  -0.5905  -0.5758  -0.5674  -0.5526  -0.5473
 -0.5106  -0.4821  -0.4649  -0.4438  -0.3381  -0.3040

          Ground-State Mulliken Net Atomic Charges

     Atom                 Charge (a.u.)
  ----------------------------------------
      1 C                     0.036957
      2 C                    -0.259312
      3 C                     0.039616
      4 H                     0.179833
      5 C                    -0.255190
      6 S                    -0.001579
      7 C                    -0.272815
      8 H                     0.101928
      9 H                     0.106750
     10 H                     0.106683
     11 C                    -0.359876
     12 H                     0.111297
     13 H                     0.140776
     14 H                     0.129711
     15 H                     0.195222
  ----------------------------------------
  Sum of atomic charges =     0.000000

                    Cartesian Multipole Moments
 -----------------------------------------------------------------
    Charge (ESU x 10^10)
                -0.0000
    Dipole Moment (Debye)
         X       0.2996      Y       0.1063      Z       0.8906
       Tot       0.9457
    Quadrupole Moments (Debye-Ang)
        XX     -53.1238     XY       2.3800     YY     -42.8822
        XZ       0.0024     YZ       1.4201     ZZ     -48.7824

 Total job time:  155.77s(wall), 154.77s(cpu)
        *  Thank you very much for using Q-Chem.  Have a nice day.  *
