 Q-Chem 5.4, Q-Chem, Inc., Pleasanton, CA (2021)
 Q-Chem 5.4.0 for Intel X86 EM64T Linux

User input:
--------------------------------------------------------------
$molecule
0 1
C	-0.514965	-0.333974	0.013624
C	0.146635	0.221126	1.113024
C	1.206735	1.110626	0.790324
H	-0.135865	-0.015974	2.149724
C	1.375835	1.252426	-0.598876
S	0.206935	0.271726	-1.473176
C	2.040035	1.809826	1.828224
H	1.713935	1.536226	2.850324
H	1.967635	2.914026	1.739824
H	3.114835	1.546726	1.739824
C	-0.514965	-1.774674	0.013624
H	-1.578565	-1.774374	0.201024
H	-0.657165	-2.478474	-0.793176
H	-0.350465	-2.293574	0.946324
H	2.102935	1.862626	-1.147976
$end

$rem
JOBTYPE		SP
EXCHANGE	HF
CORRELATION	pRIMP2
BASIS		cc-pvtz
METHOD		rimp2
AUX_BASIS	rimp2-cc-pvtz
SOLVENT_METHOD	PCM
PURECART	11111
SYMMETRY	false
MEM_TOTAL	110000
SCF_CONVERGENCE = 6
THRESH=10
$end

$solvent
dielectric 4.90
$end
--------------------------------------------------------------

             Standard Nuclear Orientation (Angstroms)
    I     Atom           X                Y                Z
 ----------------------------------------------------------------
    1      C      -0.5149650000    -0.3339740000     0.0136240000
    2      C       0.1466350000     0.2211260000     1.1130240000
    3      C       1.2067350000     1.1106260000     0.7903240000
    4      H      -0.1358650000    -0.0159740000     2.1497240000
    5      C       1.3758350000     1.2524260000    -0.5988760000
    6      S       0.2069350000     0.2717260000    -1.4731760000
    7      C       2.0400350000     1.8098260000     1.8282240000
    8      H       1.7139350000     1.5362260000     2.8503240000
    9      H       1.9676350000     2.9140260000     1.7398240000
   10      H       3.1148350000     1.5467260000     1.7398240000
   11      C      -0.5149650000    -1.7746740000     0.0136240000
   12      H      -1.5785650000    -1.7743740000     0.2010240000
   13      H      -0.6571650000    -2.4784740000    -0.7931760000
   14      H      -0.3504650000    -2.2935740000     0.9463240000
   15      H       2.1029350000     1.8626260000    -1.1479760000
 ----------------------------------------------------------------

   11    -629.3613123280      4.15e-07  Convergence criterion met
 Total energy in the final basis set =     -629.3613123280
        RIMP2         total energy =      -630.5513189582 a.u.

                    Orbital Energies (a.u.)
 --------------------------------------------------------------

 Alpha MOs
 -- Occupied --
-91.9727 -11.2688 -11.2573 -11.2483 -11.2419 -11.2279 -11.2079  -8.9734
 -6.6543  -6.6534  -6.6531  -1.1668  -1.0540  -0.9970  -0.9390  -0.8825
 -0.7467  -0.7260  -0.6417  -0.5851  -0.5793  -0.5675  -0.5527  -0.5429
 -0.5157  -0.4935  -0.4582  -0.4292  -0.3359  -0.2844

          Ground-State Mulliken Net Atomic Charges

     Atom                 Charge (a.u.)
  ----------------------------------------
      1 C                    -0.039522
      2 C                    -0.205015
      3 C                     0.017454
      4 H                     0.180443
      5 C                    -0.220999
      6 S                     0.007400
      7 C                    -0.269091
      8 H                     0.101515
      9 H                     0.106896
     10 H                     0.105291
     11 C                    -0.393177
     12 H                     0.126753
     13 H                     0.155154
     14 H                     0.133355
     15 H                     0.193542
  ----------------------------------------
  Sum of atomic charges =     0.000000

                    Cartesian Multipole Moments
 -----------------------------------------------------------------
    Charge (ESU x 10^10)
                -0.0000
    Dipole Moment (Debye)
         X       1.0131      Y      -0.0946      Z       1.7589
       Tot       2.0320
    Quadrupole Moments (Debye-Ang)
        XX     -49.1162     XY       5.7606     YY     -48.2139
        XZ       0.0462     YZ       0.0891     ZZ     -47.9311

 Total job time:  170.44s(wall), 168.72s(cpu)
        *  Thank you very much for using Q-Chem.  Have a nice day.  *
