 Q-Chem 5.4, Q-Chem, Inc., Pleasanton, CA (2021)
 Q-Chem 5.4.0 for Intel X86 EM64T Linux

User input:
--------------------------------------------------------------
$molecule
0 1
C	-0.588878	-0.237129	0.010354
C	0.159022	0.194671	1.109754
C	1.357522	0.886571	0.787054
H	-0.160378	0.010271	2.146454
C	1.548622	0.996871	-0.602146
S	0.227322	0.234071	-1.476446
C	2.299622	1.430471	1.824954
H	1.930922	1.217571	2.847054
H	2.420022	2.530371	1.736554
H	3.312422	0.984671	1.736554
C	-0.588878	-1.677829	0.010354
H	-0.401478	-1.677529	1.073954
H	-1.395678	-2.381629	0.152554
H	0.343822	-2.196729	-0.154146
H	2.370722	1.471471	-1.151246
$end

$rem
JOBTYPE		SP
EXCHANGE	HF
CORRELATION	pRIMP2
BASIS		cc-pvtz
METHOD		rimp2
AUX_BASIS	rimp2-cc-pvtz
SOLVENT_METHOD	PCM
PURECART	11111
SYMMETRY	false
MEM_TOTAL	110000
SCF_CONVERGENCE = 6
THRESH=10
$end

$solvent
dielectric 4.90
$end
--------------------------------------------------------------

             Standard Nuclear Orientation (Angstroms)
    I     Atom           X                Y                Z
 ----------------------------------------------------------------
    1      C      -0.5888780000    -0.2371290000     0.0103540000
    2      C       0.1590220000     0.1946710000     1.1097540000
    3      C       1.3575220000     0.8865710000     0.7870540000
    4      H      -0.1603780000     0.0102710000     2.1464540000
    5      C       1.5486220000     0.9968710000    -0.6021460000
    6      S       0.2273220000     0.2340710000    -1.4764460000
    7      C       2.2996220000     1.4304710000     1.8249540000
    8      H       1.9309220000     1.2175710000     2.8470540000
    9      H       2.4200220000     2.5303710000     1.7365540000
   10      H       3.3124220000     0.9846710000     1.7365540000
   11      C      -0.5888780000    -1.6778290000     0.0103540000
   12      H      -0.4014780000    -1.6775290000     1.0739540000
   13      H      -1.3956780000    -2.3816290000     0.1525540000
   14      H       0.3438220000    -2.1967290000    -0.1541460000
   15      H       2.3707220000     1.4714710000    -1.1512460000
 ----------------------------------------------------------------

   11    -629.3446184085      4.89e-07  Convergence criterion met
 Total energy in the final basis set =     -629.3446184085
        RIMP2         total energy =      -630.5366877518 a.u.

                    Orbital Energies (a.u.)
 --------------------------------------------------------------

 Alpha MOs
 -- Occupied --
-91.9737 -11.2832 -11.2543 -11.2489 -11.2451 -11.2296 -11.2063  -8.9745
 -6.6553  -6.6544  -6.6542  -1.1765  -1.0575  -1.0027  -0.9328  -0.8824
 -0.7486  -0.7363  -0.6431  -0.5953  -0.5845  -0.5671  -0.5531  -0.5438
 -0.5184  -0.4720  -0.4557  -0.4311  -0.3280  -0.3055

          Ground-State Mulliken Net Atomic Charges

     Atom                 Charge (a.u.)
  ----------------------------------------
      1 C                    -0.098181
      2 C                    -0.119409
      3 C                    -0.022732
      4 H                     0.181885
      5 C                    -0.184640
      6 S                     0.013102
      7 C                    -0.267754
      8 H                     0.101865
      9 H                     0.106849
     10 H                     0.104494
     11 C                    -0.354968
     12 H                     0.109569
     13 H                     0.115684
     14 H                     0.116426
     15 H                     0.197809
  ----------------------------------------
  Sum of atomic charges =     0.000000

                    Cartesian Multipole Moments
 -----------------------------------------------------------------
    Charge (ESU x 10^10)
                -0.0000
    Dipole Moment (Debye)
         X       2.5968      Y       0.2038      Z       2.3033
       Tot       3.4771
    Quadrupole Moments (Debye-Ang)
        XX     -47.9537     XY       4.1167     YY     -50.3051
        XZ      -0.7533     YZ      -0.9008     ZZ     -47.9643

 Total job time:  179.22s(wall), 177.96s(cpu)
        *  Thank you very much for using Q-Chem.  Have a nice day.  *
