 Q-Chem 5.4, Q-Chem, Inc., Pleasanton, CA (2021)
 Q-Chem 5.4.0 for Intel X86 EM64T Linux

User input:
--------------------------------------------------------------
$molecule
0 1
C	-0.121873	-0.565976	0.014458
C	0.028127	0.284524	1.113858
C	0.268427	1.647424	0.791158
H	-0.035973	-0.078676	2.150558
C	0.306827	1.864724	-0.598042
S	0.041827	0.362124	-1.472342
C	0.457327	2.718624	1.829058
H	0.383427	2.299424	2.851158
H	-0.307873	3.517924	1.740658
H	1.449827	3.207924	1.740658
C	0.003727	-2.001176	0.014458
H	-1.072273	-2.094976	0.014358
H	0.065127	-2.702276	-0.804742
H	0.048927	-2.518176	0.961558
H	0.471627	2.799424	-1.147142
$end

$rem
JOBTYPE		SP
EXCHANGE	HF
CORRELATION	pRIMP2
BASIS		cc-pvtz
METHOD		rimp2
AUX_BASIS	rimp2-cc-pvtz
SOLVENT_METHOD	PCM
PURECART	11111
SYMMETRY	false
MEM_TOTAL	110000
SCF_CONVERGENCE = 6
THRESH=10
$end

$solvent
dielectric 4.90
$end
--------------------------------------------------------------

             Standard Nuclear Orientation (Angstroms)
    I     Atom           X                Y                Z
 ----------------------------------------------------------------
    1      C      -0.1218730000    -0.5659760000     0.0144580000
    2      C       0.0281270000     0.2845240000     1.1138580000
    3      C       0.2684270000     1.6474240000     0.7911580000
    4      H      -0.0359730000    -0.0786760000     2.1505580000
    5      C       0.3068270000     1.8647240000    -0.5980420000
    6      S       0.0418270000     0.3621240000    -1.4723420000
    7      C       0.4573270000     2.7186240000     1.8290580000
    8      H       0.3834270000     2.2994240000     2.8511580000
    9      H      -0.3078730000     3.5179240000     1.7406580000
   10      H       1.4498270000     3.2079240000     1.7406580000
   11      C       0.0037270000    -2.0011760000     0.0144580000
   12      H      -1.0722730000    -2.0949760000     0.0143580000
   13      H       0.0651270000    -2.7022760000    -0.8047420000
   14      H       0.0489270000    -2.5181760000     0.9615580000
   15      H       0.4716270000     2.7994240000    -1.1471420000
 ----------------------------------------------------------------

   10    -629.4174339546      6.62e-07  Convergence criterion met
 Total energy in the final basis set =     -629.4174339546
        RIMP2         total energy =      -630.5945446618 a.u.

                    Orbital Energies (a.u.)
 --------------------------------------------------------------

 Alpha MOs
 -- Occupied --
-91.9772 -11.2835 -11.2500 -11.2470 -11.2265 -11.2250 -11.2202  -8.9771
 -6.6581  -6.6575  -6.6569  -1.1602  -1.0557  -0.9973  -0.9419  -0.8829
 -0.7438  -0.7191  -0.6468  -0.5886  -0.5733  -0.5719  -0.5525  -0.5454
 -0.5093  -0.4938  -0.4606  -0.4559  -0.3380  -0.2877

          Ground-State Mulliken Net Atomic Charges

     Atom                 Charge (a.u.)
  ----------------------------------------
      1 C                     0.053090
      2 C                    -0.300827
      3 C                     0.049833
      4 H                     0.177254
      5 C                    -0.277510
      6 S                    -0.000278
      7 C                    -0.272711
      8 H                     0.101252
      9 H                     0.107195
     10 H                     0.107174
     11 C                    -0.379749
     12 H                     0.138566
     13 H                     0.163154
     14 H                     0.141019
     15 H                     0.192538
  ----------------------------------------
  Sum of atomic charges =     0.000000

                    Cartesian Multipole Moments
 -----------------------------------------------------------------
    Charge (ESU x 10^10)
                -0.0000
    Dipole Moment (Debye)
         X      -0.3850      Y      -0.7117      Z       1.4302
       Tot       1.6432
    Quadrupole Moments (Debye-Ang)
        XX     -54.2049     XY       2.7468     YY     -41.8539
        XZ       0.0275     YZ       0.4797     ZZ     -48.5347

 Total job time:  158.09s(wall), 154.88s(cpu)
        *  Thank you very much for using Q-Chem.  Have a nice day.  *
