 Q-Chem 5.4, Q-Chem, Inc., Pleasanton, CA (2021)
 Q-Chem 5.4.0 for Intel X86 EM64T Linux

User input:
--------------------------------------------------------------
$molecule
0 1
C	-0.343855	-0.485421	0.016439
C	0.087945	0.262479	1.115839
C	0.779945	1.460979	0.793139
H	-0.096455	-0.056921	2.152539
C	0.890245	1.652079	-0.596061
S	0.127345	0.330679	-1.470361
C	1.323845	2.402979	1.831039
H	1.111045	2.034379	2.853139
H	0.878145	3.415779	1.742639
H	2.423845	2.523379	1.742639
C	-0.343855	-1.926121	0.016439
H	0.719745	-1.925821	-0.170961
H	-0.201655	-2.629921	0.823239
H	-0.508355	-2.445021	-0.916261
H	1.364945	2.474079	-1.145161
$end

$rem
JOBTYPE		SP
EXCHANGE	HF
CORRELATION	pRIMP2
BASIS		cc-pvtz
METHOD		rimp2
AUX_BASIS	rimp2-cc-pvtz
SOLVENT_METHOD	PCM
PURECART	11111
SYMMETRY	false
MEM_TOTAL	110000
SCF_CONVERGENCE = 6
THRESH=10
$end

$solvent
dielectric 4.90
$end
--------------------------------------------------------------

   10    -629.4087179961      6.84e-07  Convergence criterion met
 Total energy in the final basis set =     -629.4087179961
        RIMP2         total energy =      -630.5875203406 a.u.
 Total job time:  158.23s(wall), 157.70s(cpu)
        *  Thank you very much for using Q-Chem.  Have a nice day.  *
 Q-Chem 5.4, Q-Chem, Inc., Pleasanton, CA (2021)
 Q-Chem 5.4.0 for Intel X86 EM64T Linux

User input:
--------------------------------------------------------------
$molecule
0 1
C	-0.343855	-0.485421	0.016439
C	0.087945	0.262479	1.115839
C	0.779945	1.460979	0.793139
H	-0.096455	-0.056921	2.152539
C	0.890245	1.652079	-0.596061
S	0.127345	0.330679	-1.470361
C	1.323845	2.402979	1.831039
H	1.111045	2.034379	2.853139
H	0.878145	3.415779	1.742639
H	2.423845	2.523379	1.742639
C	-0.343855	-1.926121	0.016439
H	0.719745	-1.925821	-0.170961
H	-0.201655	-2.629921	0.823239
H	-0.508355	-2.445021	-0.916261
H	1.364945	2.474079	-1.145161
$end

$rem
JOBTYPE		SP
EXCHANGE	HF
CORRELATION	pRIMP2
BASIS		cc-pvtz
METHOD		rimp2
AUX_BASIS	rimp2-cc-pvtz
SOLVENT_METHOD	PCM
PURECART	11111
SYMMETRY	false
MEM_TOTAL	110000
SCF_CONVERGENCE = 6
THRESH=10
$end

$solvent
dielectric 4.90
$end
--------------------------------------------------------------

             Standard Nuclear Orientation (Angstroms)
    I     Atom           X                Y                Z
 ----------------------------------------------------------------
    1      C      -0.3438550000    -0.4854210000     0.0164390000
    2      C       0.0879450000     0.2624790000     1.1158390000
    3      C       0.7799450000     1.4609790000     0.7931390000
    4      H      -0.0964550000    -0.0569210000     2.1525390000
    5      C       0.8902450000     1.6520790000    -0.5960610000
    6      S       0.1273450000     0.3306790000    -1.4703610000
    7      C       1.3238450000     2.4029790000     1.8310390000
    8      H       1.1110450000     2.0343790000     2.8531390000
    9      H       0.8781450000     3.4157790000     1.7426390000
   10      H       2.4238450000     2.5233790000     1.7426390000
   11      C      -0.3438550000    -1.9261210000     0.0164390000
   12      H       0.7197450000    -1.9258210000    -0.1709610000
   13      H      -0.2016550000    -2.6299210000     0.8232390000
   14      H      -0.5083550000    -2.4450210000    -0.9162610000
   15      H       1.3649450000     2.4740790000    -1.1451610000
 ----------------------------------------------------------------

   10    -629.4087179961      6.84e-07  Convergence criterion met
 Total energy in the final basis set =     -629.4087179961
        RIMP2         total energy =      -630.5875203406 a.u.

                    Orbital Energies (a.u.)
 --------------------------------------------------------------

 Alpha MOs
 -- Occupied --
-91.9770 -11.2806 -11.2546 -11.2478 -11.2269 -11.2261 -11.2210  -8.9773
 -6.6582  -6.6577  -6.6570  -1.1643  -1.0570  -0.9960  -0.9417  -0.8814
 -0.7458  -0.7204  -0.6485  -0.5856  -0.5799  -0.5650  -0.5531  -0.5469
 -0.5073  -0.4946  -0.4625  -0.4557  -0.3396  -0.2880

          Ground-State Mulliken Net Atomic Charges

     Atom                 Charge (a.u.)
  ----------------------------------------
      1 C                     0.049461
      2 C                    -0.314791
      3 C                     0.061413
      4 H                     0.175602
      5 C                    -0.272919
      6 S                    -0.000669
      7 C                    -0.270755
      8 H                     0.101704
      9 H                     0.107770
     10 H                     0.106549
     11 C                    -0.370003
     12 H                     0.146435
     13 H                     0.157495
     14 H                     0.129486
     15 H                     0.193222
  ----------------------------------------
  Sum of atomic charges =     0.000000

                    Cartesian Multipole Moments
 -----------------------------------------------------------------
    Charge (ESU x 10^10)
                -0.0000
    Dipole Moment (Debye)
         X       1.3625      Y      -0.5661      Z       1.3612
       Tot       2.0074
    Quadrupole Moments (Debye-Ang)
        XX     -52.8017     XY       2.5872     YY     -44.2402
        XZ       0.2752     YZ       0.2638     ZZ     -48.5236

 Total job time:  157.51s(wall), 156.11s(cpu)
        *  Thank you very much for using Q-Chem.  Have a nice day.  *
