 Q-Chem 5.4, Q-Chem, Inc., Pleasanton, CA (2021)
 Q-Chem 5.4.0 for Intel X86 EM64T Linux

User input:
--------------------------------------------------------------
$molecule
0 1
C	-0.591028	-0.237129	0.011685
C	0.156872	0.194671	1.111085
C	1.355372	0.886571	0.788385
H	-0.162528	0.010271	2.147785
C	1.546472	0.996871	-0.600815
S	0.225172	0.234071	-1.475115
C	2.297472	1.430471	1.826285
H	1.928772	1.217571	2.848385
H	2.417872	2.530371	1.737885
H	3.310272	0.984671	1.737885
C	-0.591028	-1.677829	0.011685
H	0.103072	-1.677529	0.839085
H	-1.218628	-2.381629	0.538185
H	0.134472	-2.196729	-0.597115
H	2.368572	1.471471	-1.149915
$end

$rem
JOBTYPE		SP
EXCHANGE	HF
CORRELATION	pRIMP2
BASIS		cc-pvtz
METHOD		rimp2
AUX_BASIS	rimp2-cc-pvtz
SOLVENT_METHOD	PCM
PURECART	11111
SYMMETRY	false
MEM_TOTAL	110000
SCF_CONVERGENCE = 6
THRESH=10
$end

$solvent
dielectric 4.90
$end
--------------------------------------------------------------

             Standard Nuclear Orientation (Angstroms)
    I     Atom           X                Y                Z
 ----------------------------------------------------------------
    1      C      -0.5910280000    -0.2371290000     0.0116850000
    2      C       0.1568720000     0.1946710000     1.1110850000
    3      C       1.3553720000     0.8865710000     0.7883850000
    4      H      -0.1625280000     0.0102710000     2.1477850000
    5      C       1.5464720000     0.9968710000    -0.6008150000
    6      S       0.2251720000     0.2340710000    -1.4751150000
    7      C       2.2974720000     1.4304710000     1.8262850000
    8      H       1.9287720000     1.2175710000     2.8483850000
    9      H       2.4178720000     2.5303710000     1.7378850000
   10      H       3.3102720000     0.9846710000     1.7378850000
   11      C      -0.5910280000    -1.6778290000     0.0116850000
   12      H       0.1030720000    -1.6775290000     0.8390850000
   13      H      -1.2186280000    -2.3816290000     0.5381850000
   14      H       0.1344720000    -2.1967290000    -0.5971150000
   15      H       2.3685720000     1.4714710000    -1.1499150000
 ----------------------------------------------------------------

   11    -629.3329875533      7.43e-07  Convergence criterion met
 Total energy in the final basis set =     -629.3329875533
        RIMP2         total energy =      -630.5275498964 a.u.

                    Orbital Energies (a.u.)
 --------------------------------------------------------------

 Alpha MOs
 -- Occupied --
-91.9778 -11.2808 -11.2503 -11.2487 -11.2471 -11.2292 -11.2048  -8.9782
 -6.6590  -6.6582  -6.6579  -1.1779  -1.0579  -1.0023  -0.9333  -0.8811
 -0.7495  -0.7345  -0.6441  -0.5942  -0.5813  -0.5685  -0.5534  -0.5454
 -0.5157  -0.4764  -0.4500  -0.4485  -0.3275  -0.2916

          Ground-State Mulliken Net Atomic Charges

     Atom                 Charge (a.u.)
  ----------------------------------------
      1 C                    -0.113694
      2 C                    -0.102560
      3 C                    -0.035469
      4 H                     0.185389
      5 C                    -0.194075
      6 S                     0.026020
      7 C                    -0.267498
      8 H                     0.101962
      9 H                     0.107160
     10 H                     0.103366
     11 C                    -0.373348
     12 H                     0.119728
     13 H                     0.118012
     14 H                     0.126092
     15 H                     0.198916
  ----------------------------------------
  Sum of atomic charges =     0.000000

                    Cartesian Multipole Moments
 -----------------------------------------------------------------
    Charge (ESU x 10^10)
                -0.0000
    Dipole Moment (Debye)
         X       2.7799      Y       0.0651      Z       2.0463
       Tot       3.4524
    Quadrupole Moments (Debye-Ang)
        XX     -48.6610     XY       3.5711     YY     -50.4352
        XZ      -0.8518     YZ      -0.7978     ZZ     -47.4918

 Total job time:  181.99s(wall), 180.44s(cpu)
        *  Thank you very much for using Q-Chem.  Have a nice day.  *
