 Q-Chem 5.4, Q-Chem, Inc., Pleasanton, CA (2021)
 Q-Chem 5.4.0 for Intel X86 EM64T Linux

User input:
--------------------------------------------------------------
$molecule
0 1
C	-0.283348	-0.512744	0.018592
C	0.081652	0.269956	1.117992
C	0.666552	1.524156	0.795292
H	-0.074248	-0.064344	2.154692
C	0.759852	1.724156	-0.593908
S	0.114952	0.341356	-1.468208
C	1.126252	2.509956	1.833192
H	0.946352	2.124256	2.855292
H	0.593952	3.480156	1.744792
H	2.211552	2.725856	1.744792
C	-0.283348	-1.953444	0.018592
H	-1.110648	-1.953644	-0.675708
H	-0.809948	-2.657244	0.646092
H	0.325452	-2.472344	-0.707008
H	1.160952	2.584456	-1.143008
$end

$rem
JOBTYPE		SP
EXCHANGE	HF
CORRELATION	pRIMP2
BASIS		cc-pvtz
METHOD		rimp2
AUX_BASIS	rimp2-cc-pvtz
SOLVENT_METHOD	PCM
PURECART	11111
SYMMETRY	false
MEM_TOTAL	110000
SCF_CONVERGENCE = 6
THRESH=10
$end

$solvent
dielectric 4.90
$end
--------------------------------------------------------------

             Standard Nuclear Orientation (Angstroms)
    I     Atom           X                Y                Z
 ----------------------------------------------------------------
    1      C      -0.2833480000    -0.5127440000     0.0185920000
    2      C       0.0816520000     0.2699560000     1.1179920000
    3      C       0.6665520000     1.5241560000     0.7952920000
    4      H      -0.0742480000    -0.0643440000     2.1546920000
    5      C       0.7598520000     1.7241560000    -0.5939080000
    6      S       0.1149520000     0.3413560000    -1.4682080000
    7      C       1.1262520000     2.5099560000     1.8331920000
    8      H       0.9463520000     2.1242560000     2.8552920000
    9      H       0.5939520000     3.4801560000     1.7447920000
   10      H       2.2115520000     2.7258560000     1.7447920000
   11      C      -0.2833480000    -1.9534440000     0.0185920000
   12      H      -1.1106480000    -1.9536440000    -0.6757080000
   13      H      -0.8099480000    -2.6572440000     0.6460920000
   14      H       0.3254520000    -2.4723440000    -0.7070080000
   15      H       1.1609520000     2.5844560000    -1.1430080000
 ----------------------------------------------------------------

   10    -629.4074721746      5.39e-07  Convergence criterion met
 Total energy in the final basis set =     -629.4074721746
        RIMP2         total energy =      -630.5871027176 a.u.

                    Orbital Energies (a.u.)
 --------------------------------------------------------------

 Alpha MOs
 -- Occupied --
-91.9791 -11.2743 -11.2578 -11.2470 -11.2288 -11.2267 -11.2157  -8.9790
 -6.6600  -6.6594  -6.6588  -1.1617  -1.0549  -0.9954  -0.9447  -0.8818
 -0.7467  -0.7194  -0.6466  -0.5894  -0.5743  -0.5677  -0.5527  -0.5463
 -0.5106  -0.4860  -0.4616  -0.4511  -0.3383  -0.2936

          Ground-State Mulliken Net Atomic Charges

     Atom                 Charge (a.u.)
  ----------------------------------------
      1 C                     0.004230
      2 C                    -0.245458
      3 C                     0.033749
      4 H                     0.180057
      5 C                    -0.250039
      6 S                    -0.003471
      7 C                    -0.272412
      8 H                     0.101556
      9 H                     0.106979
     10 H                     0.106391
     11 C                    -0.373459
     12 H                     0.122850
     13 H                     0.156770
     14 H                     0.137586
     15 H                     0.194672
  ----------------------------------------
  Sum of atomic charges =     0.000000

                    Cartesian Multipole Moments
 -----------------------------------------------------------------
    Charge (ESU x 10^10)
                -0.0000
    Dipole Moment (Debye)
         X       0.1546      Y      -0.1792      Z       1.0733
       Tot       1.0990
    Quadrupole Moments (Debye-Ang)
        XX     -52.3966     XY       4.5926     YY     -43.7633
        XZ      -0.2095     YZ       0.8505     ZZ     -48.5683

 Total job time:  157.26s(wall), 155.28s(cpu)
        *  Thank you very much for using Q-Chem.  Have a nice day.  *
