 Q-Chem 5.4, Q-Chem, Inc., Pleasanton, CA (2021)
 Q-Chem 5.4.0 for Intel X86 EM64T Linux

User input:
--------------------------------------------------------------
$molecule
0 1
C	-0.227925	-0.535395	0.012353
C	0.067475	0.276105	1.111753
C	0.540775	1.576505	0.789053
H	-0.058625	-0.070395	2.148453
C	0.616275	1.783905	-0.600147
S	0.094375	0.350205	-1.474447
C	0.912875	2.598705	1.826953
H	0.767275	2.198705	2.849053
H	0.298075	3.518705	1.738553
H	1.975275	2.908305	1.738553
C	-0.227925	-1.976095	0.012353
H	-1.055325	-1.976295	0.706453
H	0.298575	-2.679895	0.639953
H	-0.836725	-2.494995	-0.713147
H	0.940975	2.675905	-1.149247
$end

$rem
JOBTYPE		SP
EXCHANGE	HF
CORRELATION	pRIMP2
BASIS		cc-pvtz
METHOD		rimp2
AUX_BASIS	rimp2-cc-pvtz
SOLVENT_METHOD	PCM
PURECART	11111
SYMMETRY	false
MEM_TOTAL	110000
SCF_CONVERGENCE = 6
THRESH=10
$end

$solvent
dielectric 4.90
$end
--------------------------------------------------------------

   10    -629.4147162617      5.57e-07  Convergence criterion met
 Total energy in the final basis set =     -629.4147162617
        RIMP2         total energy =      -630.5941385904 a.u.
 Total job time:  158.89s(wall), 156.06s(cpu)
        *  Thank you very much for using Q-Chem.  Have a nice day.  *
 Q-Chem 5.4, Q-Chem, Inc., Pleasanton, CA (2021)
 Q-Chem 5.4.0 for Intel X86 EM64T Linux

User input:
--------------------------------------------------------------
$molecule
0 1
C	-0.227925	-0.535395	0.012353
C	0.067475	0.276105	1.111753
C	0.540775	1.576505	0.789053
H	-0.058625	-0.070395	2.148453
C	0.616275	1.783905	-0.600147
S	0.094375	0.350205	-1.474447
C	0.912875	2.598705	1.826953
H	0.767275	2.198705	2.849053
H	0.298075	3.518705	1.738553
H	1.975275	2.908305	1.738553
C	-0.227925	-1.976095	0.012353
H	-1.055325	-1.976295	0.706453
H	0.298575	-2.679895	0.639953
H	-0.836725	-2.494995	-0.713147
H	0.940975	2.675905	-1.149247
$end

$rem
JOBTYPE		SP
EXCHANGE	HF
CORRELATION	pRIMP2
BASIS		cc-pvtz
METHOD		rimp2
AUX_BASIS	rimp2-cc-pvtz
SOLVENT_METHOD	PCM
PURECART	11111
SYMMETRY	false
MEM_TOTAL	110000
SCF_CONVERGENCE = 6
THRESH=10
$end

$solvent
dielectric 4.90
$end
--------------------------------------------------------------

             Standard Nuclear Orientation (Angstroms)
    I     Atom           X                Y                Z
 ----------------------------------------------------------------
    1      C      -0.2279250000    -0.5353950000     0.0123530000
    2      C       0.0674750000     0.2761050000     1.1117530000
    3      C       0.5407750000     1.5765050000     0.7890530000
    4      H      -0.0586250000    -0.0703950000     2.1484530000
    5      C       0.6162750000     1.7839050000    -0.6001470000
    6      S       0.0943750000     0.3502050000    -1.4744470000
    7      C       0.9128750000     2.5987050000     1.8269530000
    8      H       0.7672750000     2.1987050000     2.8490530000
    9      H       0.2980750000     3.5187050000     1.7385530000
   10      H       1.9752750000     2.9083050000     1.7385530000
   11      C      -0.2279250000    -1.9760950000     0.0123530000
   12      H      -1.0553250000    -1.9762950000     0.7064530000
   13      H       0.2985750000    -2.6798950000     0.6399530000
   14      H      -0.8367250000    -2.4949950000    -0.7131470000
   15      H       0.9409750000     2.6759050000    -1.1492470000
 ----------------------------------------------------------------

   10    -629.4147162617      5.57e-07  Convergence criterion met
 Total energy in the final basis set =     -629.4147162617
        RIMP2         total energy =      -630.5941385904 a.u.

                    Orbital Energies (a.u.)
 --------------------------------------------------------------

 Alpha MOs
 -- Occupied --
-91.9760 -11.2770 -11.2555 -11.2475 -11.2308 -11.2271 -11.2168  -8.9760
 -6.6569  -6.6563  -6.6558  -1.1610  -1.0543  -0.9982  -0.9406  -0.8837
 -0.7430  -0.7219  -0.6487  -0.5868  -0.5756  -0.5647  -0.5599  -0.5434
 -0.5111  -0.4903  -0.4631  -0.4453  -0.3375  -0.2942

          Ground-State Mulliken Net Atomic Charges

     Atom                 Charge (a.u.)
  ----------------------------------------
      1 C                     0.043451
      2 C                    -0.291350
      3 C                     0.044774
      4 H                     0.177082
      5 C                    -0.258001
      6 S                    -0.000272
      7 C                    -0.273203
      8 H                     0.101268
      9 H                     0.107007
     10 H                     0.107104
     11 C                    -0.373183
     12 H                     0.131333
     13 H                     0.156466
     14 H                     0.135354
     15 H                     0.192169
  ----------------------------------------
  Sum of atomic charges =     0.000000

                    Cartesian Multipole Moments
 -----------------------------------------------------------------
    Charge (ESU x 10^10)
                -0.0000
    Dipole Moment (Debye)
         X      -0.0549      Y      -0.2851      Z       1.9224
       Tot       1.9442
    Quadrupole Moments (Debye-Ang)
        XX     -52.8945     XY       3.9728     YY     -43.2286
        XZ       0.3010     YZ      -0.7359     ZZ     -48.6212

 Total job time:  158.27s(wall), 156.41s(cpu)
        *  Thank you very much for using Q-Chem.  Have a nice day.  *
