 Q-Chem 5.4, Q-Chem, Inc., Pleasanton, CA (2021)
 Q-Chem 5.4.0 for Intel X86 EM64T Linux

User input:
--------------------------------------------------------------
$molecule
0 1
C	-0.120012	-0.566007	0.019394
C	0.029988	0.284493	1.118794
C	0.270288	1.647393	0.796094
H	-0.034112	-0.078707	2.155494
C	0.308688	1.864693	-0.593106
S	0.043688	0.362093	-1.467406
C	0.459188	2.718593	1.833994
H	0.385288	2.299393	2.856094
H	-0.306012	3.517893	1.745594
H	1.451688	3.207893	1.745594
C	-0.120012	-2.006707	0.019394
H	0.249488	-2.006907	-0.995406
H	-0.889812	-2.710507	-0.260806
H	0.769988	-2.525607	0.343294
H	0.473488	2.799393	-1.142206
$end

$rem
JOBTYPE		SP
EXCHANGE	HF
CORRELATION	pRIMP2
BASIS		cc-pvtz
METHOD		rimp2
AUX_BASIS	rimp2-cc-pvtz
SOLVENT_METHOD	PCM
PURECART	11111
SYMMETRY	false
MEM_TOTAL	110000
SCF_CONVERGENCE = 6
THRESH=10
$end

$solvent
dielectric 4.90
$end
--------------------------------------------------------------

   10    -629.4194346017      5.63e-07  Convergence criterion met
 Total energy in the final basis set =     -629.4194346017
        RIMP2         total energy =      -630.5972899085 a.u.
 Total job time:  157.46s(wall), 155.53s(cpu)
        *  Thank you very much for using Q-Chem.  Have a nice day.  *
 Q-Chem 5.4, Q-Chem, Inc., Pleasanton, CA (2021)
 Q-Chem 5.4.0 for Intel X86 EM64T Linux

User input:
--------------------------------------------------------------
$molecule
0 1
C	-0.120012	-0.566007	0.019394
C	0.029988	0.284493	1.118794
C	0.270288	1.647393	0.796094
H	-0.034112	-0.078707	2.155494
C	0.308688	1.864693	-0.593106
S	0.043688	0.362093	-1.467406
C	0.459188	2.718593	1.833994
H	0.385288	2.299393	2.856094
H	-0.306012	3.517893	1.745594
H	1.451688	3.207893	1.745594
C	-0.120012	-2.006707	0.019394
H	0.249488	-2.006907	-0.995406
H	-0.889812	-2.710507	-0.260806
H	0.769988	-2.525607	0.343294
H	0.473488	2.799393	-1.142206
$end

$rem
JOBTYPE		SP
EXCHANGE	HF
CORRELATION	pRIMP2
BASIS		cc-pvtz
METHOD		rimp2
AUX_BASIS	rimp2-cc-pvtz
SOLVENT_METHOD	PCM
PURECART	11111
SYMMETRY	false
MEM_TOTAL	110000
SCF_CONVERGENCE = 6
THRESH=10
$end

$solvent
dielectric 4.90
$end
--------------------------------------------------------------

             Standard Nuclear Orientation (Angstroms)
    I     Atom           X                Y                Z
 ----------------------------------------------------------------
    1      C      -0.1200120000    -0.5660070000     0.0193940000
    2      C       0.0299880000     0.2844930000     1.1187940000
    3      C       0.2702880000     1.6473930000     0.7960940000
    4      H      -0.0341120000    -0.0787070000     2.1554940000
    5      C       0.3086880000     1.8646930000    -0.5931060000
    6      S       0.0436880000     0.3620930000    -1.4674060000
    7      C       0.4591880000     2.7185930000     1.8339940000
    8      H       0.3852880000     2.2993930000     2.8560940000
    9      H      -0.3060120000     3.5178930000     1.7455940000
   10      H       1.4516880000     3.2078930000     1.7455940000
   11      C      -0.1200120000    -2.0067070000     0.0193940000
   12      H       0.2494880000    -2.0069070000    -0.9954060000
   13      H      -0.8898120000    -2.7105070000    -0.2608060000
   14      H       0.7699880000    -2.5256070000     0.3432940000
   15      H       0.4734880000     2.7993930000    -1.1422060000
 ----------------------------------------------------------------

   10    -629.4194346017      5.63e-07  Convergence criterion met
 Total energy in the final basis set =     -629.4194346017
        RIMP2         total energy =      -630.5972899085 a.u.

                    Orbital Energies (a.u.)
 --------------------------------------------------------------

 Alpha MOs
 -- Occupied --
-91.9794 -11.2757 -11.2573 -11.2470 -11.2294 -11.2268 -11.2162  -8.9794
 -6.6603  -6.6598  -6.6592  -1.1612  -1.0553  -0.9953  -0.9459  -0.8815
 -0.7478  -0.7187  -0.6477  -0.5915  -0.5758  -0.5660  -0.5528  -0.5476
 -0.5087  -0.4869  -0.4647  -0.4454  -0.3385  -0.3019

          Ground-State Mulliken Net Atomic Charges

     Atom                 Charge (a.u.)
  ----------------------------------------
      1 C                     0.055937
      2 C                    -0.272435
      3 C                     0.044529
      4 H                     0.179883
      5 C                    -0.260445
      6 S                    -0.002859
      7 C                    -0.272798
      8 H                     0.101751
      9 H                     0.107091
     10 H                     0.106854
     11 C                    -0.372524
     12 H                     0.116032
     13 H                     0.143442
     14 H                     0.130577
     15 H                     0.194966
  ----------------------------------------
  Sum of atomic charges =     0.000000

                    Cartesian Multipole Moments
 -----------------------------------------------------------------
    Charge (ESU x 10^10)
                -0.0000
    Dipole Moment (Debye)
         X       0.5041      Y      -0.0409      Z       0.8843
       Tot       1.0187
    Quadrupole Moments (Debye-Ang)
        XX     -53.5854     XY       1.0993     YY     -42.4709
        XZ       0.3076     YZ       1.5063     ZZ     -48.7827

 Total job time:  156.39s(wall), 155.13s(cpu)
        *  Thank you very much for using Q-Chem.  Have a nice day.  *
