 Q-Chem 5.4, Q-Chem, Inc., Pleasanton, CA (2021)
 Q-Chem 5.4.0 for Intel X86 EM64T Linux

User input:
--------------------------------------------------------------
$molecule
0 1
C	-0.227133	-0.535395	0.014756
C	0.068267	0.276105	1.114156
C	0.541567	1.576505	0.791456
H	-0.057833	-0.070395	2.150856
C	0.617067	1.783905	-0.597744
S	0.095167	0.350205	-1.472044
C	0.913667	2.598705	1.829356
H	0.768067	2.198705	2.851456
H	0.298867	3.518705	1.740956
H	1.976067	2.908305	1.740956
C	-0.227133	-1.976095	0.014756
H	-1.290733	-1.976295	0.202156
H	-0.084933	-2.679895	0.821556
H	-0.391633	-2.494995	-0.917944
H	0.941767	2.675905	-1.146844
$end

$rem
JOBTYPE		SP
EXCHANGE	HF
CORRELATION	pRIMP2
BASIS		cc-pvtz
METHOD		rimp2
AUX_BASIS	rimp2-cc-pvtz
SOLVENT_METHOD	PCM
PURECART	11111
SYMMETRY	false
MEM_TOTAL	110000
SCF_CONVERGENCE = 6
THRESH=10
$end

$solvent
dielectric 4.90
$end
--------------------------------------------------------------

   10    -629.4124293090      6.36e-07  Convergence criterion met
 Total energy in the final basis set =     -629.4124293090
        RIMP2         total energy =      -630.5908929482 a.u.
 Total job time:  158.43s(wall), 155.58s(cpu)
        *  Thank you very much for using Q-Chem.  Have a nice day.  *
 Q-Chem 5.4, Q-Chem, Inc., Pleasanton, CA (2021)
 Q-Chem 5.4.0 for Intel X86 EM64T Linux

User input:
--------------------------------------------------------------
$molecule
0 1
C	-0.227133	-0.535395	0.014756
C	0.068267	0.276105	1.114156
C	0.541567	1.576505	0.791456
H	-0.057833	-0.070395	2.150856
C	0.617067	1.783905	-0.597744
S	0.095167	0.350205	-1.472044
C	0.913667	2.598705	1.829356
H	0.768067	2.198705	2.851456
H	0.298867	3.518705	1.740956
H	1.976067	2.908305	1.740956
C	-0.227133	-1.976095	0.014756
H	-1.290733	-1.976295	0.202156
H	-0.084933	-2.679895	0.821556
H	-0.391633	-2.494995	-0.917944
H	0.941767	2.675905	-1.146844
$end

$rem
JOBTYPE		SP
EXCHANGE	HF
CORRELATION	pRIMP2
BASIS		cc-pvtz
METHOD		rimp2
AUX_BASIS	rimp2-cc-pvtz
SOLVENT_METHOD	PCM
PURECART	11111
SYMMETRY	false
MEM_TOTAL	110000
SCF_CONVERGENCE = 6
THRESH=10
$end

$solvent
dielectric 4.90
$end
--------------------------------------------------------------

             Standard Nuclear Orientation (Angstroms)
    I     Atom           X                Y                Z
 ----------------------------------------------------------------
    1      C      -0.2271330000    -0.5353950000     0.0147560000
    2      C       0.0682670000     0.2761050000     1.1141560000
    3      C       0.5415670000     1.5765050000     0.7914560000
    4      H      -0.0578330000    -0.0703950000     2.1508560000
    5      C       0.6170670000     1.7839050000    -0.5977440000
    6      S       0.0951670000     0.3502050000    -1.4720440000
    7      C       0.9136670000     2.5987050000     1.8293560000
    8      H       0.7680670000     2.1987050000     2.8514560000
    9      H       0.2988670000     3.5187050000     1.7409560000
   10      H       1.9760670000     2.9083050000     1.7409560000
   11      C      -0.2271330000    -1.9760950000     0.0147560000
   12      H      -1.2907330000    -1.9762950000     0.2021560000
   13      H      -0.0849330000    -2.6798950000     0.8215560000
   14      H      -0.3916330000    -2.4949950000    -0.9179440000
   15      H       0.9417670000     2.6759050000    -1.1468440000
 ----------------------------------------------------------------

   10    -629.4124293090      6.36e-07  Convergence criterion met
 Total energy in the final basis set =     -629.4124293090
        RIMP2         total energy =      -630.5908929482 a.u.

                    Orbital Energies (a.u.)
 --------------------------------------------------------------

 Alpha MOs
 -- Occupied --
-91.9777 -11.2805 -11.2517 -11.2471 -11.2265 -11.2258 -11.2186  -8.9776
 -6.6586  -6.6580  -6.6574  -1.1605  -1.0552  -0.9971  -0.9420  -0.8828
 -0.7438  -0.7197  -0.6483  -0.5854  -0.5734  -0.5675  -0.5560  -0.5451
 -0.5099  -0.4944  -0.4598  -0.4543  -0.3378  -0.2878

          Ground-State Mulliken Net Atomic Charges

     Atom                 Charge (a.u.)
  ----------------------------------------
      1 C                     0.046854
      2 C                    -0.303663
      3 C                     0.053441
      4 H                     0.175295
      5 C                    -0.274344
      6 S                     0.006006
      7 C                    -0.272023
      8 H                     0.101399
      9 H                     0.107139
     10 H                     0.106945
     11 C                    -0.378028
     12 H                     0.137464
     13 H                     0.163560
     14 H                     0.137666
     15 H                     0.192290
  ----------------------------------------
  Sum of atomic charges =     0.000000

                    Cartesian Multipole Moments
 -----------------------------------------------------------------
    Charge (ESU x 10^10)
                -0.0000
    Dipole Moment (Debye)
         X      -0.2999      Y      -0.5633      Z       1.5506
       Tot       1.6768
    Quadrupole Moments (Debye-Ang)
        XX     -53.1287     XY       4.3536     YY     -43.0509
        XZ       0.1472     YZ      -0.0961     ZZ     -48.4609

 Total job time:  157.88s(wall), 156.20s(cpu)
        *  Thank you very much for using Q-Chem.  Have a nice day.  *
