 Q-Chem 5.4, Q-Chem, Inc., Pleasanton, CA (2021)
 Q-Chem 5.4.0 for Intel X86 EM64T Linux

User input:
--------------------------------------------------------------
$molecule
0 1
C	-0.520762	-0.333972	0.010276
C	0.140838	0.221128	1.109676
C	1.200938	1.110628	0.786976
H	-0.141662	-0.015972	2.146376
C	1.370038	1.252428	-0.602224
S	0.201138	0.271728	-1.476524
C	2.034238	1.809828	1.824876
H	1.708138	1.536228	2.846976
H	1.961838	2.914028	1.736476
H	3.109038	1.546728	1.736476
C	-0.520762	-1.774672	0.010276
H	-0.151462	-1.774872	1.025176
H	0.249038	-2.478472	-0.269824
H	-1.410762	-2.293572	0.334176
H	2.097138	1.862628	-1.151324
$end

$rem
JOBTYPE		SP
EXCHANGE	HF
CORRELATION	pRIMP2
BASIS		cc-pvtz
METHOD		rimp2
AUX_BASIS	rimp2-cc-pvtz
SOLVENT_METHOD	PCM
PURECART	11111
SYMMETRY	false
MEM_TOTAL	110000
SCF_CONVERGENCE = 6
THRESH=10
$end

$solvent
dielectric 4.90
$end
--------------------------------------------------------------

             Standard Nuclear Orientation (Angstroms)
    I     Atom           X                Y                Z
 ----------------------------------------------------------------
    1      C      -0.5207620000    -0.3339720000     0.0102760000
    2      C       0.1408380000     0.2211280000     1.1096760000
    3      C       1.2009380000     1.1106280000     0.7869760000
    4      H      -0.1416620000    -0.0159720000     2.1463760000
    5      C       1.3700380000     1.2524280000    -0.6022240000
    6      S       0.2011380000     0.2717280000    -1.4765240000
    7      C       2.0342380000     1.8098280000     1.8248760000
    8      H       1.7081380000     1.5362280000     2.8469760000
    9      H       1.9618380000     2.9140280000     1.7364760000
   10      H       3.1090380000     1.5467280000     1.7364760000
   11      C      -0.5207620000    -1.7746720000     0.0102760000
   12      H      -0.1514620000    -1.7748720000     1.0251760000
   13      H       0.2490380000    -2.4784720000    -0.2698240000
   14      H      -1.4107620000    -2.2935720000     0.3341760000
   15      H       2.0971380000     1.8626280000    -1.1513240000
 ----------------------------------------------------------------

   10    -629.3634623442      9.84e-07  Convergence criterion met
 Total energy in the final basis set =     -629.3634623442
        RIMP2         total energy =      -630.5533309642 a.u.

                    Orbital Energies (a.u.)
 --------------------------------------------------------------

 Alpha MOs
 -- Occupied --
-91.9755 -11.2734 -11.2548 -11.2484 -11.2457 -11.2287 -11.2066  -8.9758
 -6.6567  -6.6559  -6.6556  -1.1705  -1.0552  -1.0009  -0.9343  -0.8829
 -0.7457  -0.7316  -0.6442  -0.5883  -0.5817  -0.5721  -0.5536  -0.5429
 -0.5179  -0.4705  -0.4582  -0.4372  -0.3310  -0.3007

          Ground-State Mulliken Net Atomic Charges

     Atom                 Charge (a.u.)
  ----------------------------------------
      1 C                    -0.060040
      2 C                    -0.167231
      3 C                    -0.003489
      4 H                     0.178982
      5 C                    -0.208738
      6 S                     0.010485
      7 C                    -0.268775
      8 H                     0.101483
      9 H                     0.106887
     10 H                     0.104885
     11 C                    -0.369440
     12 H                     0.123498
     13 H                     0.149643
     14 H                     0.106503
     15 H                     0.195347
  ----------------------------------------
  Sum of atomic charges =     0.000000

                    Cartesian Multipole Moments
 -----------------------------------------------------------------
    Charge (ESU x 10^10)
                -0.0000
    Dipole Moment (Debye)
         X       2.0624      Y       0.2193      Z       2.2088
       Tot       3.0299
    Quadrupole Moments (Debye-Ang)
        XX     -49.4323     XY       3.8379     YY     -48.5456
        XZ      -0.5834     YZ      -0.9339     ZZ     -48.1735

 Total job time:  161.83s(wall), 159.74s(cpu)
        *  Thank you very much for using Q-Chem.  Have a nice day.  *
