 Q-Chem 5.4, Q-Chem, Inc., Pleasanton, CA (2021)
 Q-Chem 5.4.0 for Intel X86 EM64T Linux

User input:
--------------------------------------------------------------
$molecule
0 1
C	-0.289374	-0.512744	0.010945
C	0.075626	0.269956	1.110345
C	0.660526	1.524156	0.787645
H	-0.080274	-0.064344	2.147045
C	0.753826	1.724156	-0.601555
S	0.108926	0.341356	-1.475855
C	1.120226	2.509956	1.825545
H	0.940326	2.124256	2.847645
H	0.587926	3.480156	1.737145
H	2.205526	2.725856	1.737145
C	-0.289374	-1.953444	0.010945
H	0.404726	-1.953644	0.838345
H	0.338226	-2.657244	-0.515555
H	-1.014874	-2.472344	0.619745
H	1.154926	2.584456	-1.150655
$end

$rem
JOBTYPE		SP
EXCHANGE	HF
CORRELATION	pRIMP2
BASIS		cc-pvtz
METHOD		rimp2
AUX_BASIS	rimp2-cc-pvtz
SOLVENT_METHOD	PCM
PURECART	11111
SYMMETRY	false
MEM_TOTAL	110000
SCF_CONVERGENCE = 6
THRESH=10
$end

$solvent
dielectric 4.90
$end
--------------------------------------------------------------

             Standard Nuclear Orientation (Angstroms)
    I     Atom           X                Y                Z
 ----------------------------------------------------------------
    1      C      -0.2893740000    -0.5127440000     0.0109450000
    2      C       0.0756260000     0.2699560000     1.1103450000
    3      C       0.6605260000     1.5241560000     0.7876450000
    4      H      -0.0802740000    -0.0643440000     2.1470450000
    5      C       0.7538260000     1.7241560000    -0.6015550000
    6      S       0.1089260000     0.3413560000    -1.4758550000
    7      C       1.1202260000     2.5099560000     1.8255450000
    8      H       0.9403260000     2.1242560000     2.8476450000
    9      H       0.5879260000     3.4801560000     1.7371450000
   10      H       2.2055260000     2.7258560000     1.7371450000
   11      C      -0.2893740000    -1.9534440000     0.0109450000
   12      H       0.4047260000    -1.9536440000     0.8383450000
   13      H       0.3382260000    -2.6572440000    -0.5155550000
   14      H      -1.0148740000    -2.4723440000     0.6197450000
   15      H       1.1549260000     2.5844560000    -1.1506550000
 ----------------------------------------------------------------

   10    -629.4080029921      5.37e-07  Convergence criterion met
 Total energy in the final basis set =     -629.4080029921
        RIMP2         total energy =      -630.5887617642 a.u.

                    Orbital Energies (a.u.)
 --------------------------------------------------------------

 Alpha MOs
 -- Occupied --
-91.9775 -11.2775 -11.2554 -11.2477 -11.2304 -11.2273 -11.2153  -8.9774
 -6.6583  -6.6577  -6.6572  -1.1628  -1.0547  -0.9990  -0.9381  -0.8834
 -0.7427  -0.7231  -0.6470  -0.5901  -0.5755  -0.5721  -0.5564  -0.5430
 -0.5115  -0.4785  -0.4675  -0.4478  -0.3358  -0.2948

          Ground-State Mulliken Net Atomic Charges

     Atom                 Charge (a.u.)
  ----------------------------------------
      1 C                     0.035144
      2 C                    -0.263207
      3 C                     0.033525
      4 H                     0.175761
      5 C                    -0.259766
      6 S                     0.001144
      7 C                    -0.271276
      8 H                     0.101313
      9 H                     0.107255
     10 H                     0.106443
     11 C                    -0.389743
     12 H                     0.142221
     13 H                     0.159728
     14 H                     0.129223
     15 H                     0.192236
  ----------------------------------------
  Sum of atomic charges =     0.000000

                    Cartesian Multipole Moments
 -----------------------------------------------------------------
    Charge (ESU x 10^10)
                -0.0000
    Dipole Moment (Debye)
         X       1.0420      Y      -0.2925      Z       1.9929
       Tot       2.2678
    Quadrupole Moments (Debye-Ang)
        XX     -52.8068     XY       2.2955     YY     -44.0376
        XZ      -0.2830     YZ      -0.7273     ZZ     -48.5892

 Total job time:  158.67s(wall), 156.91s(cpu)
        *  Thank you very much for using Q-Chem.  Have a nice day.  *
