 Q-Chem 5.4, Q-Chem, Inc., Pleasanton, CA (2021)
 Q-Chem 5.4.0 for Intel X86 EM64T Linux

User input:
--------------------------------------------------------------
$molecule
0 1
C	-0.175298	-0.553189	0.019910
C	0.048202	0.281011	1.119310
C	0.406402	1.617711	0.796610
H	-0.047198	-0.075289	2.156010
C	0.463602	1.830811	-0.592590
S	0.068602	0.357111	-1.466890
C	0.688002	2.668411	1.834510
H	0.577802	2.257311	2.856610
H	-0.004598	3.531411	1.746110
H	1.719302	3.069411	1.746110
C	-0.175298	-1.993889	0.019910
H	-0.362698	-1.994089	-1.043690
H	-0.982098	-2.697689	0.162110
H	0.757402	-2.512789	-0.144590
H	0.709302	2.747711	-1.141690
$end

$rem
JOBTYPE		SP
EXCHANGE	HF
CORRELATION	pRIMP2
BASIS		cc-pvtz
METHOD		rimp2
AUX_BASIS	rimp2-cc-pvtz
SOLVENT_METHOD	PCM
PURECART	11111
SYMMETRY	false
MEM_TOTAL	110000
SCF_CONVERGENCE = 6
THRESH=10
$end

$solvent
dielectric 4.90
$end
--------------------------------------------------------------

             Standard Nuclear Orientation (Angstroms)
    I     Atom           X                Y                Z
 ----------------------------------------------------------------
    1      C      -0.1752980000    -0.5531890000     0.0199100000
    2      C       0.0482020000     0.2810110000     1.1193100000
    3      C       0.4064020000     1.6177110000     0.7966100000
    4      H      -0.0471980000    -0.0752890000     2.1560100000
    5      C       0.4636020000     1.8308110000    -0.5925900000
    6      S       0.0686020000     0.3571110000    -1.4668900000
    7      C       0.6880020000     2.6684110000     1.8345100000
    8      H       0.5778020000     2.2573110000     2.8566100000
    9      H      -0.0045980000     3.5314110000     1.7461100000
   10      H       1.7193020000     3.0694110000     1.7461100000
   11      C      -0.1752980000    -1.9938890000     0.0199100000
   12      H      -0.3626980000    -1.9940890000    -1.0436900000
   13      H      -0.9820980000    -2.6976890000     0.1621100000
   14      H       0.7574020000    -2.5127890000    -0.1445900000
   15      H       0.7093020000     2.7477110000    -1.1416900000
 ----------------------------------------------------------------

   10    -629.4165858740      5.33e-07  Convergence criterion met
 Total energy in the final basis set =     -629.4165858740
        RIMP2         total energy =      -630.5952935497 a.u.

                    Orbital Energies (a.u.)
 --------------------------------------------------------------

 Alpha MOs
 -- Occupied --
-91.9806 -11.2734 -11.2589 -11.2471 -11.2298 -11.2269 -11.2156  -8.9805
 -6.6614  -6.6608  -6.6602  -1.1615  -1.0551  -0.9952  -0.9462  -0.8815
 -0.7481  -0.7189  -0.6476  -0.5917  -0.5753  -0.5658  -0.5537  -0.5473
 -0.5095  -0.4842  -0.4650  -0.4440  -0.3382  -0.3036

          Ground-State Mulliken Net Atomic Charges

     Atom                 Charge (a.u.)
  ----------------------------------------
      1 C                     0.042661
      2 C                    -0.263502
      3 C                     0.041806
      4 H                     0.179475
      5 C                    -0.257169
      6 S                    -0.002075
      7 C                    -0.272749
      8 H                     0.101915
      9 H                     0.106787
     10 H                     0.106710
     11 C                    -0.365346
     12 H                     0.111428
     13 H                     0.149958
     14 H                     0.124893
     15 H                     0.195209
  ----------------------------------------
  Sum of atomic charges =     0.000000

                    Cartesian Multipole Moments
 -----------------------------------------------------------------
    Charge (ESU x 10^10)
                -0.0000
    Dipole Moment (Debye)
         X       0.3229      Y       0.0565      Z       0.8748
       Tot       0.9342
    Quadrupole Moments (Debye-Ang)
        XX     -53.1282     XY       2.5920     YY     -42.8369
        XZ       0.0322     YZ       1.3851     ZZ     -48.8042

 Total job time:  155.54s(wall), 154.77s(cpu)
        *  Thank you very much for using Q-Chem.  Have a nice day.  *
