 Q-Chem 5.4, Q-Chem, Inc., Pleasanton, CA (2021)
 Q-Chem 5.4.0 for Intel X86 EM64T Linux

User input:
--------------------------------------------------------------
$molecule
0 1
C	-0.004380	-0.576309	0.012832
C	-0.004380	0.287291	1.112232
C	-0.004280	1.671191	0.789532
H	-0.004380	-0.081509	2.148932
C	-0.004280	1.891891	-0.599668
S	-0.004380	0.366091	-1.473968
C	-0.004280	2.758991	1.827432
H	-0.004280	2.333291	2.849532
H	-0.896680	3.413291	1.739032
H	0.888120	3.413191	1.739032
C	-0.004380	-2.017009	0.012832
H	1.010420	-2.017209	0.382332
H	0.275820	-2.720809	-0.756968
H	-0.328280	-2.535909	0.902832
H	-0.004280	2.841091	-1.148768
$end

$rem
JOBTYPE		SP
EXCHANGE	HF
CORRELATION	pRIMP2
BASIS		cc-pvtz
METHOD		rimp2
AUX_BASIS	rimp2-cc-pvtz
SOLVENT_METHOD	PCM
PURECART	11111
SYMMETRY	false
MEM_TOTAL	110000
SCF_CONVERGENCE = 6
THRESH=10
$end

$solvent
dielectric 4.90
$end
--------------------------------------------------------------

             Standard Nuclear Orientation (Angstroms)
    I     Atom           X                Y                Z
 ----------------------------------------------------------------
    1      C      -0.0043800000    -0.5763090000     0.0128320000
    2      C      -0.0043800000     0.2872910000     1.1122320000
    3      C      -0.0042800000     1.6711910000     0.7895320000
    4      H      -0.0043800000    -0.0815090000     2.1489320000
    5      C      -0.0042800000     1.8918910000    -0.5996680000
    6      S      -0.0043800000     0.3660910000    -1.4739680000
    7      C      -0.0042800000     2.7589910000     1.8274320000
    8      H      -0.0042800000     2.3332910000     2.8495320000
    9      H      -0.8966800000     3.4132910000     1.7390320000
   10      H       0.8881200000     3.4131910000     1.7390320000
   11      C      -0.0043800000    -2.0170090000     0.0128320000
   12      H       1.0104200000    -2.0172090000     0.3823320000
   13      H       0.2758200000    -2.7208090000    -0.7569680000
   14      H      -0.3282800000    -2.5359090000     0.9028320000
   15      H      -0.0042800000     2.8410910000    -1.1487680000
 ----------------------------------------------------------------

   10    -629.4243238959      6.76e-07  Convergence criterion met
 Total energy in the final basis set =     -629.4243238959
        RIMP2         total energy =      -630.6001854731 a.u.

                    Orbital Energies (a.u.)
 --------------------------------------------------------------

 Alpha MOs
 -- Occupied --
-91.9778 -11.2861 -11.2484 -11.2470 -11.2266 -11.2239 -11.2216  -8.9775
 -6.6585  -6.6580  -6.6574  -1.1601  -1.0560  -0.9982  -0.9408  -0.8832
 -0.7428  -0.7192  -0.6480  -0.5901  -0.5733  -0.5714  -0.5555  -0.5445
 -0.5083  -0.4916  -0.4655  -0.4545  -0.3378  -0.2893

          Ground-State Mulliken Net Atomic Charges

     Atom                 Charge (a.u.)
  ----------------------------------------
      1 C                     0.075410
      2 C                    -0.307769
      3 C                     0.047391
      4 H                     0.175173
      5 C                    -0.279334
      6 S                    -0.000752
      7 C                    -0.275329
      8 H                     0.101200
      9 H                     0.107325
     10 H                     0.107394
     11 C                    -0.389696
     12 H                     0.143668
     13 H                     0.162879
     14 H                     0.140617
     15 H                     0.191822
  ----------------------------------------
  Sum of atomic charges =     0.000000

                    Cartesian Multipole Moments
 -----------------------------------------------------------------
    Charge (ESU x 10^10)
                -0.0000
    Dipole Moment (Debye)
         X       0.6972      Y      -0.7519      Z       1.6571
       Tot       1.9487
    Quadrupole Moments (Debye-Ang)
        XX     -54.3096     XY      -1.5371     YY     -41.7837
        XZ      -0.1669     YZ      -0.0142     ZZ     -48.6270

 Total job time:  157.83s(wall), 154.90s(cpu)
        *  Thank you very much for using Q-Chem.  Have a nice day.  *
