 Q-Chem 5.4, Q-Chem, Inc., Pleasanton, CA (2021)
 Q-Chem 5.4.0 for Intel X86 EM64T Linux

User input:
--------------------------------------------------------------
$molecule
0 1
C	-0.281817	-0.512746	0.015309
C	0.083183	0.269954	1.114709
C	0.668083	1.524154	0.792009
H	-0.072717	-0.064346	2.151409
C	0.761383	1.724154	-0.597191
S	0.116483	0.341354	-1.471491
C	1.127783	2.509954	1.829909
H	0.947883	2.124254	2.852009
H	0.595483	3.480154	1.741509
H	2.213083	2.725854	1.741509
C	-0.281817	-1.953446	0.015309
H	-1.345417	-1.953146	-0.172391
H	-0.139517	-2.657246	-0.791391
H	-0.446317	-2.472346	0.948009
H	1.162483	2.584454	-1.146291
$end

$rem
JOBTYPE		SP
EXCHANGE	HF
CORRELATION	pRIMP2
BASIS		cc-pvtz
METHOD		rimp2
AUX_BASIS	rimp2-cc-pvtz
SOLVENT_METHOD	PCM
PURECART	11111
SYMMETRY	false
MEM_TOTAL	110000
SCF_CONVERGENCE = 6
THRESH=10
$end

$solvent
dielectric 4.90
$end
--------------------------------------------------------------

             Standard Nuclear Orientation (Angstroms)
    I     Atom           X                Y                Z
 ----------------------------------------------------------------
    1      C      -0.2818170000    -0.5127460000     0.0153090000
    2      C       0.0831830000     0.2699540000     1.1147090000
    3      C       0.6680830000     1.5241540000     0.7920090000
    4      H      -0.0727170000    -0.0643460000     2.1514090000
    5      C       0.7613830000     1.7241540000    -0.5971910000
    6      S       0.1164830000     0.3413540000    -1.4714910000
    7      C       1.1277830000     2.5099540000     1.8299090000
    8      H       0.9478830000     2.1242540000     2.8520090000
    9      H       0.5954830000     3.4801540000     1.7415090000
   10      H       2.2130830000     2.7258540000     1.7415090000
   11      C      -0.2818170000    -1.9534460000     0.0153090000
   12      H      -1.3454170000    -1.9531460000    -0.1723910000
   13      H      -0.1395170000    -2.6572460000    -0.7913910000
   14      H      -0.4463170000    -2.4723460000     0.9480090000
   15      H       1.1624830000     2.5844540000    -1.1462910000
 ----------------------------------------------------------------

   10    -629.4065876833      5.85e-07  Convergence criterion met
 Total energy in the final basis set =     -629.4065876833
        RIMP2         total energy =      -630.5863411242 a.u.

                    Orbital Energies (a.u.)
 --------------------------------------------------------------

 Alpha MOs
 -- Occupied --
-91.9768 -11.2783 -11.2538 -11.2472 -11.2278 -11.2266 -11.2172  -8.9769
 -6.6579  -6.6572  -6.6567  -1.1611  -1.0549  -0.9967  -0.9423  -0.8826
 -0.7448  -0.7198  -0.6455  -0.5876  -0.5734  -0.5725  -0.5511  -0.5454
 -0.5109  -0.4924  -0.4566  -0.4549  -0.3378  -0.2876

          Ground-State Mulliken Net Atomic Charges

     Atom                 Charge (a.u.)
  ----------------------------------------
      1 C                     0.023945
      2 C                    -0.275958
      3 C                     0.046162
      4 H                     0.179970
      5 C                    -0.267651
      6 S                    -0.001520
      7 C                    -0.271101
      8 H                     0.101372
      9 H                     0.107005
     10 H                     0.106627
     11 C                    -0.375436
     12 H                     0.132942
     13 H                     0.163089
     14 H                     0.137117
     15 H                     0.193436
  ----------------------------------------
  Sum of atomic charges =     0.000000

                    Cartesian Multipole Moments
 -----------------------------------------------------------------
    Charge (ESU x 10^10)
                -0.0000
    Dipole Moment (Debye)
         X      -0.1338      Y      -0.4722      Z       1.3557
       Tot       1.4417
    Quadrupole Moments (Debye-Ang)
        XX     -52.5949     XY       4.8411     YY     -43.6638
        XZ      -0.0017     YZ       0.6234     ZZ     -48.4349

 Total job time:  158.52s(wall), 155.05s(cpu)
        *  Thank you very much for using Q-Chem.  Have a nice day.  *
