 Q-Chem 5.4, Q-Chem, Inc., Pleasanton, CA (2021)
 Q-Chem 5.4.0 for Intel X86 EM64T Linux

User input:
--------------------------------------------------------------
$molecule
0 1
C	-0.054267	-0.573729	0.015309
C	0.021033	0.286571	1.114709
C	0.141633	1.665271	0.792009
H	-0.011067	-0.080829	2.151409
C	0.160933	1.885071	-0.597191
S	0.027933	0.365071	-1.471491
C	0.236533	2.748871	1.829909
H	0.199433	2.324771	2.852009
H	-0.595467	3.478371	1.741509
H	1.182533	3.322871	1.741509
C	-0.054267	-2.014429	0.015309
H	-1.117867	-2.014129	-0.172391
H	0.088033	-2.718229	-0.791391
H	-0.218767	-2.533329	0.948009
H	0.243633	2.830671	-1.146291
$end

$rem
JOBTYPE		SP
EXCHANGE	HF
CORRELATION	pRIMP2
BASIS		cc-pvtz
METHOD		rimp2
AUX_BASIS	rimp2-cc-pvtz
SOLVENT_METHOD	PCM
PURECART	11111
SYMMETRY	false
MEM_TOTAL	110000
SCF_CONVERGENCE = 6
THRESH=10
$end

$solvent
dielectric 4.90
$end
--------------------------------------------------------------

             Standard Nuclear Orientation (Angstroms)
    I     Atom           X                Y                Z
 ----------------------------------------------------------------
    1      C      -0.0542670000    -0.5737290000     0.0153090000
    2      C       0.0210330000     0.2865710000     1.1147090000
    3      C       0.1416330000     1.6652710000     0.7920090000
    4      H      -0.0110670000    -0.0808290000     2.1514090000
    5      C       0.1609330000     1.8850710000    -0.5971910000
    6      S       0.0279330000     0.3650710000    -1.4714910000
    7      C       0.2365330000     2.7488710000     1.8299090000
    8      H       0.1994330000     2.3247710000     2.8520090000
    9      H      -0.5954670000     3.4783710000     1.7415090000
   10      H       1.1825330000     3.3228710000     1.7415090000
   11      C      -0.0542670000    -2.0144290000     0.0153090000
   12      H      -1.1178670000    -2.0141290000    -0.1723910000
   13      H       0.0880330000    -2.7182290000    -0.7913910000
   14      H      -0.2187670000    -2.5333290000     0.9480090000
   15      H       0.2436330000     2.8306710000    -1.1462910000
 ----------------------------------------------------------------

   10    -629.4236676403      6.87e-07  Convergence criterion met
 Total energy in the final basis set =     -629.4236676403
        RIMP2         total energy =      -630.5990856393 a.u.

                    Orbital Energies (a.u.)
 --------------------------------------------------------------

 Alpha MOs
 -- Occupied --
-91.9776 -11.2854 -11.2492 -11.2469 -11.2264 -11.2238 -11.2219  -8.9775
 -6.6585  -6.6580  -6.6573  -1.1601  -1.0562  -0.9972  -0.9426  -0.8827
 -0.7442  -0.7185  -0.6476  -0.5895  -0.5750  -0.5703  -0.5513  -0.5464
 -0.5082  -0.4933  -0.4645  -0.4563  -0.3386  -0.2887

          Ground-State Mulliken Net Atomic Charges

     Atom                 Charge (a.u.)
  ----------------------------------------
      1 C                     0.058567
      2 C                    -0.297525
      3 C                     0.044724
      4 H                     0.178714
      5 C                    -0.276519
      6 S                    -0.005438
      7 C                    -0.274283
      8 H                     0.101245
      9 H                     0.107315
     10 H                     0.107313
     11 C                    -0.380191
     12 H                     0.140162
     13 H                     0.161999
     14 H                     0.140905
     15 H                     0.193011
  ----------------------------------------
  Sum of atomic charges =     0.000000

                    Cartesian Multipole Moments
 -----------------------------------------------------------------
    Charge (ESU x 10^10)
                -0.0000
    Dipole Moment (Debye)
         X      -0.6343      Y      -0.7209      Z       1.2911
       Tot       1.6090
    Quadrupole Moments (Debye-Ang)
        XX     -54.2636     XY       2.2879     YY     -41.7400
        XZ      -0.0928     YZ       0.7445     ZZ     -48.6024

 Total job time:  162.13s(wall), 159.59s(cpu)
        *  Thank you very much for using Q-Chem.  Have a nice day.  *
