 Q-Chem 5.4, Q-Chem, Inc., Pleasanton, CA (2021)
 Q-Chem 5.4.0 for Intel X86 EM64T Linux

User input:
--------------------------------------------------------------
$molecule
0 1
C	-0.004896	-0.576312	0.014755
C	-0.004896	0.287288	1.114155
C	-0.004796	1.671188	0.791455
H	-0.004896	-0.081512	2.150855
C	-0.004796	1.891888	-0.597745
S	-0.004896	0.366088	-1.472045
C	-0.004796	2.758988	1.829355
H	-0.004796	2.333288	2.851455
H	-0.897196	3.413288	1.740955
H	0.887604	3.413188	1.740955
C	-0.004896	-2.017012	0.014755
H	1.058704	-2.016712	0.202455
H	-0.147196	-2.720812	0.821455
H	0.159604	-2.535912	-0.917945
H	-0.004796	2.841088	-1.146845
$end

$rem
JOBTYPE		SP
EXCHANGE	HF
CORRELATION	pRIMP2
BASIS		cc-pvtz
METHOD		rimp2
AUX_BASIS	rimp2-cc-pvtz
SOLVENT_METHOD	PCM
PURECART	11111
SYMMETRY	false
MEM_TOTAL	110000
SCF_CONVERGENCE = 6
THRESH=10
$end

$solvent
dielectric 4.90
$end
--------------------------------------------------------------

   10    -629.4242654092      6.99e-07  Convergence criterion met
 Total energy in the final basis set =     -629.4242654092
        RIMP2         total energy =      -630.5995450049 a.u.
 Total job time:  157.77s(wall), 155.28s(cpu)
        *  Thank you very much for using Q-Chem.  Have a nice day.  *
 Q-Chem 5.4, Q-Chem, Inc., Pleasanton, CA (2021)
 Q-Chem 5.4.0 for Intel X86 EM64T Linux

User input:
--------------------------------------------------------------
$molecule
0 1
C	-0.004896	-0.576312	0.014755
C	-0.004896	0.287288	1.114155
C	-0.004796	1.671188	0.791455
H	-0.004896	-0.081512	2.150855
C	-0.004796	1.891888	-0.597745
S	-0.004896	0.366088	-1.472045
C	-0.004796	2.758988	1.829355
H	-0.004796	2.333288	2.851455
H	-0.897196	3.413288	1.740955
H	0.887604	3.413188	1.740955
C	-0.004896	-2.017012	0.014755
H	1.058704	-2.016712	0.202455
H	-0.147196	-2.720812	0.821455
H	0.159604	-2.535912	-0.917945
H	-0.004796	2.841088	-1.146845
$end

$rem
JOBTYPE		SP
EXCHANGE	HF
CORRELATION	pRIMP2
BASIS		cc-pvtz
METHOD		rimp2
AUX_BASIS	rimp2-cc-pvtz
SOLVENT_METHOD	PCM
PURECART	11111
SYMMETRY	false
MEM_TOTAL	110000
SCF_CONVERGENCE = 6
THRESH=10
$end

$solvent
dielectric 4.90
$end
--------------------------------------------------------------

             Standard Nuclear Orientation (Angstroms)
    I     Atom           X                Y                Z
 ----------------------------------------------------------------
    1      C      -0.0048960000    -0.5763120000     0.0147550000
    2      C      -0.0048960000     0.2872880000     1.1141550000
    3      C      -0.0047960000     1.6711880000     0.7914550000
    4      H      -0.0048960000    -0.0815120000     2.1508550000
    5      C      -0.0047960000     1.8918880000    -0.5977450000
    6      S      -0.0048960000     0.3660880000    -1.4720450000
    7      C      -0.0047960000     2.7589880000     1.8293550000
    8      H      -0.0047960000     2.3332880000     2.8514550000
    9      H      -0.8971960000     3.4132880000     1.7409550000
   10      H       0.8876040000     3.4131880000     1.7409550000
   11      C      -0.0048960000    -2.0170120000     0.0147550000
   12      H       1.0587040000    -2.0167120000     0.2024550000
   13      H      -0.1471960000    -2.7208120000     0.8214550000
   14      H       0.1596040000    -2.5359120000    -0.9179450000
   15      H      -0.0047960000     2.8410880000    -1.1468450000
 ----------------------------------------------------------------

   10    -629.4242654092      6.99e-07  Convergence criterion met
 Total energy in the final basis set =     -629.4242654092
        RIMP2         total energy =      -630.5995450049 a.u.

                    Orbital Energies (a.u.)
 --------------------------------------------------------------

 Alpha MOs
 -- Occupied --
-91.9792 -11.2858 -11.2483 -11.2468 -11.2263 -11.2221 -11.2220  -8.9789
 -6.6599  -6.6593  -6.6587  -1.1601  -1.0562  -0.9974  -0.9419  -0.8827
 -0.7434  -0.7188  -0.6498  -0.5868  -0.5737  -0.5678  -0.5557  -0.5458
 -0.5072  -0.4942  -0.4656  -0.4570  -0.3382  -0.2884

          Ground-State Mulliken Net Atomic Charges

     Atom                 Charge (a.u.)
  ----------------------------------------
      1 C                     0.068313
      2 C                    -0.311945
      3 C                     0.051455
      4 H                     0.174558
      5 C                    -0.282596
      6 S                     0.004438
      7 C                    -0.274768
      8 H                     0.101355
      9 H                     0.107190
     10 H                     0.107347
     11 C                    -0.384677
     12 H                     0.144829
     13 H                     0.164049
     14 H                     0.137761
     15 H                     0.192690
  ----------------------------------------
  Sum of atomic charges =     0.000000

                    Cartesian Multipole Moments
 -----------------------------------------------------------------
    Charge (ESU x 10^10)
                -0.0000
    Dipole Moment (Debye)
         X       0.7380      Y      -0.7599      Z       1.4990
       Tot       1.8355
    Quadrupole Moments (Debye-Ang)
        XX     -54.3882     XY      -1.5384     YY     -41.7356
        XZ      -0.0520     YZ      -0.0542     ZZ     -48.5673

 Total job time:  158.58s(wall), 157.31s(cpu)
        *  Thank you very much for using Q-Chem.  Have a nice day.  *
