 Q-Chem 5.4, Q-Chem, Inc., Pleasanton, CA (2021)
 Q-Chem 5.4.0 for Intel X86 EM64T Linux

User input:
--------------------------------------------------------------
$molecule
0 1
C	-0.063508	-0.573729	0.017231
C	0.011792	0.286571	1.116631
C	0.132392	1.665271	0.793931
H	-0.020308	-0.080829	2.153331
C	0.151692	1.885071	-0.595269
S	0.018692	0.365071	-1.469569
C	0.227292	2.748871	1.831831
H	0.190192	2.324771	2.853931
H	-0.604708	3.478371	1.743431
H	1.173292	3.322871	1.743431
C	-0.063508	-2.014429	0.017231
H	0.951392	-2.014129	-0.352069
H	0.216592	-2.718229	0.787031
H	-0.387408	-2.533329	-0.872769
H	0.234392	2.830671	-1.144369
$end

$rem
JOBTYPE		SP
EXCHANGE	HF
CORRELATION	pRIMP2
BASIS		cc-pvtz
METHOD		rimp2
AUX_BASIS	rimp2-cc-pvtz
SOLVENT_METHOD	PCM
PURECART	11111
SYMMETRY	false
MEM_TOTAL	110000
SCF_CONVERGENCE = 6
THRESH=10
$end

$solvent
dielectric 4.90
$end
--------------------------------------------------------------

             Standard Nuclear Orientation (Angstroms)
    I     Atom           X                Y                Z
 ----------------------------------------------------------------
    1      C      -0.0635080000    -0.5737290000     0.0172310000
    2      C       0.0117920000     0.2865710000     1.1166310000
    3      C       0.1323920000     1.6652710000     0.7939310000
    4      H      -0.0203080000    -0.0808290000     2.1533310000
    5      C       0.1516920000     1.8850710000    -0.5952690000
    6      S       0.0186920000     0.3650710000    -1.4695690000
    7      C       0.2272920000     2.7488710000     1.8318310000
    8      H       0.1901920000     2.3247710000     2.8539310000
    9      H      -0.6047080000     3.4783710000     1.7434310000
   10      H       1.1732920000     3.3228710000     1.7434310000
   11      C      -0.0635080000    -2.0144290000     0.0172310000
   12      H       0.9513920000    -2.0141290000    -0.3520690000
   13      H       0.2165920000    -2.7182290000     0.7870310000
   14      H      -0.3874080000    -2.5333290000    -0.8727690000
   15      H       0.2343920000     2.8306710000    -1.1443690000
 ----------------------------------------------------------------

   10    -629.4243572754      7.08e-07  Convergence criterion met
 Total energy in the final basis set =     -629.4243572754
        RIMP2         total energy =      -630.5992507702 a.u.

                    Orbital Energies (a.u.)
 --------------------------------------------------------------

 Alpha MOs
 -- Occupied --
-91.9786 -11.2847 -11.2500 -11.2467 -11.2263 -11.2229 -11.2220  -8.9785
 -6.6595  -6.6590  -6.6583  -1.1605  -1.0565  -0.9963  -0.9437  -0.8820
 -0.7449  -0.7181  -0.6495  -0.5876  -0.5762  -0.5659  -0.5526  -0.5475
 -0.5072  -0.4939  -0.4662  -0.4561  -0.3393  -0.2898

          Ground-State Mulliken Net Atomic Charges

     Atom                 Charge (a.u.)
  ----------------------------------------
      1 C                     0.063971
      2 C                    -0.311335
      3 C                     0.053078
      4 H                     0.178367
      5 C                    -0.277735
      6 S                    -0.002014
      7 C                    -0.273569
      8 H                     0.101370
      9 H                     0.107280
     10 H                     0.107328
     11 C                    -0.379485
     12 H                     0.138850
     13 H                     0.163782
     14 H                     0.136548
     15 H                     0.193562
  ----------------------------------------
  Sum of atomic charges =     0.000000

                    Cartesian Multipole Moments
 -----------------------------------------------------------------
    Charge (ESU x 10^10)
                -0.0000
    Dipole Moment (Debye)
         X       0.7801      Y      -0.6640      Z       1.1568
       Tot       1.5452
    Quadrupole Moments (Debye-Ang)
        XX     -54.3459     XY      -0.7008     YY     -41.7425
        XZ       0.2666     YZ       0.6884     ZZ     -48.6481

 Total job time:  158.51s(wall), 157.59s(cpu)
        *  Thank you very much for using Q-Chem.  Have a nice day.  *
