 Q-Chem 5.4, Q-Chem, Inc., Pleasanton, CA (2021)
 Q-Chem 5.4.0 for Intel X86 EM64T Linux

User input:
--------------------------------------------------------------
$molecule
0 1
C	-0.335830	-0.485419	0.018592
C	0.095970	0.262481	1.117992
C	0.787970	1.460981	0.795292
H	-0.088430	-0.056919	2.154692
C	0.898270	1.652081	-0.593908
S	0.135370	0.330681	-1.468208
C	1.331870	2.402981	1.833192
H	1.119070	2.034381	2.855292
H	0.886170	3.415781	1.744792
H	2.431870	2.523381	1.744792
C	-0.335830	-1.926119	0.018592
H	-1.163130	-1.926319	-0.675708
H	-0.862430	-2.629919	0.646092
H	0.272970	-2.445019	-0.707008
H	1.372970	2.474081	-1.143008
$end

$rem
JOBTYPE		SP
EXCHANGE	HF
CORRELATION	pRIMP2
BASIS		cc-pvtz
METHOD		rimp2
AUX_BASIS	rimp2-cc-pvtz
SOLVENT_METHOD	PCM
PURECART	11111
SYMMETRY	false
MEM_TOTAL	110000
SCF_CONVERGENCE = 6
THRESH=10
$end

$solvent
dielectric 4.90
$end
--------------------------------------------------------------

   10    -629.4011390347      5.24e-07  Convergence criterion met
 Total energy in the final basis set =     -629.4011390347
        RIMP2         total energy =      -630.5822352365 a.u.
 Total job time:  156.96s(wall), 155.00s(cpu)
        *  Thank you very much for using Q-Chem.  Have a nice day.  *
 Q-Chem 5.4, Q-Chem, Inc., Pleasanton, CA (2021)
 Q-Chem 5.4.0 for Intel X86 EM64T Linux

User input:
--------------------------------------------------------------
$molecule
0 1
C	-0.335830	-0.485419	0.018592
C	0.095970	0.262481	1.117992
C	0.787970	1.460981	0.795292
H	-0.088430	-0.056919	2.154692
C	0.898270	1.652081	-0.593908
S	0.135370	0.330681	-1.468208
C	1.331870	2.402981	1.833192
H	1.119070	2.034381	2.855292
H	0.886170	3.415781	1.744792
H	2.431870	2.523381	1.744792
C	-0.335830	-1.926119	0.018592
H	-1.163130	-1.926319	-0.675708
H	-0.862430	-2.629919	0.646092
H	0.272970	-2.445019	-0.707008
H	1.372970	2.474081	-1.143008
$end

$rem
JOBTYPE		SP
EXCHANGE	HF
CORRELATION	pRIMP2
BASIS		cc-pvtz
METHOD		rimp2
AUX_BASIS	rimp2-cc-pvtz
SOLVENT_METHOD	PCM
PURECART	11111
SYMMETRY	false
MEM_TOTAL	110000
SCF_CONVERGENCE = 6
THRESH=10
$end

$solvent
dielectric 4.90
$end
--------------------------------------------------------------

             Standard Nuclear Orientation (Angstroms)
    I     Atom           X                Y                Z
 ----------------------------------------------------------------
    1      C      -0.3358300000    -0.4854190000     0.0185920000
    2      C       0.0959700000     0.2624810000     1.1179920000
    3      C       0.7879700000     1.4609810000     0.7952920000
    4      H      -0.0884300000    -0.0569190000     2.1546920000
    5      C       0.8982700000     1.6520810000    -0.5939080000
    6      S       0.1353700000     0.3306810000    -1.4682080000
    7      C       1.3318700000     2.4029810000     1.8331920000
    8      H       1.1190700000     2.0343810000     2.8552920000
    9      H       0.8861700000     3.4157810000     1.7447920000
   10      H       2.4318700000     2.5233810000     1.7447920000
   11      C      -0.3358300000    -1.9261190000     0.0185920000
   12      H      -1.1631300000    -1.9263190000    -0.6757080000
   13      H      -0.8624300000    -2.6299190000     0.6460920000
   14      H       0.2729700000    -2.4450190000    -0.7070080000
   15      H       1.3729700000     2.4740810000    -1.1430080000
 ----------------------------------------------------------------

   10    -629.4011390347      5.24e-07  Convergence criterion met
 Total energy in the final basis set =     -629.4011390347
        RIMP2         total energy =      -630.5822352365 a.u.

                    Orbital Energies (a.u.)
 --------------------------------------------------------------

 Alpha MOs
 -- Occupied --
-91.9787 -11.2714 -11.2599 -11.2472 -11.2305 -11.2268 -11.2144  -8.9787
 -6.6597  -6.6591  -6.6585  -1.1624  -1.0547  -0.9952  -0.9445  -0.8816
 -0.7471  -0.7201  -0.6458  -0.5893  -0.5743  -0.5680  -0.5526  -0.5460
 -0.5115  -0.4847  -0.4603  -0.4498  -0.3380  -0.2934

          Ground-State Mulliken Net Atomic Charges

     Atom                 Charge (a.u.)
  ----------------------------------------
      1 C                    -0.008079
      2 C                    -0.235184
      3 C                     0.032597
      4 H                     0.180003
      5 C                    -0.245279
      6 S                    -0.001932
      7 C                    -0.271841
      8 H                     0.101545
      9 H                     0.107010
     10 H                     0.106066
     11 C                    -0.374625
     12 H                     0.121878
     13 H                     0.154406
     14 H                     0.138637
     15 H                     0.194797
  ----------------------------------------
  Sum of atomic charges =     0.000000

                    Cartesian Multipole Moments
 -----------------------------------------------------------------
    Charge (ESU x 10^10)
                -0.0000
    Dipole Moment (Debye)
         X       0.3423      Y      -0.1051      Z       1.1073
       Tot       1.1637
    Quadrupole Moments (Debye-Ang)
        XX     -51.7787     XY       5.0203     YY     -44.5364
        XZ      -0.2174     YZ       0.7754     ZZ     -48.5048

 Total job time:  155.82s(wall), 154.91s(cpu)
        *  Thank you very much for using Q-Chem.  Have a nice day.  *
