 Q-Chem 5.4, Q-Chem, Inc., Pleasanton, CA (2021)
 Q-Chem 5.4.0 for Intel X86 EM64T Linux

User input:
--------------------------------------------------------------
$molecule
0 1
C	-0.431363	-0.417597	0.013624
C	0.123737	0.243903	1.113024
C	1.013337	1.304103	0.790324
H	-0.113263	-0.038597	2.149724
C	1.155237	1.473103	-0.598876
S	0.174437	0.304303	-1.473176
C	1.712537	2.137303	1.828224
H	1.438937	1.811303	2.850324
H	1.449537	3.212103	1.739824
H	2.816737	2.064903	1.739824
C	-0.431363	-1.858297	0.013624
H	-1.494963	-1.857997	0.201024
H	-0.573563	-2.562097	-0.793176
H	-0.266863	-2.377197	0.946324
H	1.765337	2.200203	-1.147976
$end

$rem
JOBTYPE		SP
EXCHANGE	HF
CORRELATION	pRIMP2
BASIS		cc-pvtz
METHOD		rimp2
AUX_BASIS	rimp2-cc-pvtz
SOLVENT_METHOD	PCM
PURECART	11111
SYMMETRY	false
MEM_TOTAL	110000
SCF_CONVERGENCE = 6
THRESH=10
$end

$solvent
dielectric 4.90
$end
--------------------------------------------------------------

             Standard Nuclear Orientation (Angstroms)
    I     Atom           X                Y                Z
 ----------------------------------------------------------------
    1      C      -0.4313630000    -0.4175970000     0.0136240000
    2      C       0.1237370000     0.2439030000     1.1130240000
    3      C       1.0133370000     1.3041030000     0.7903240000
    4      H      -0.1132630000    -0.0385970000     2.1497240000
    5      C       1.1552370000     1.4731030000    -0.5988760000
    6      S       0.1744370000     0.3043030000    -1.4731760000
    7      C       1.7125370000     2.1373030000     1.8282240000
    8      H       1.4389370000     1.8113030000     2.8503240000
    9      H       1.4495370000     3.2121030000     1.7398240000
   10      H       2.8167370000     2.0649030000     1.7398240000
   11      C      -0.4313630000    -1.8582970000     0.0136240000
   12      H      -1.4949630000    -1.8579970000     0.2010240000
   13      H      -0.5735630000    -2.5620970000    -0.7931760000
   14      H      -0.2668630000    -2.3771970000     0.9463240000
   15      H       1.7653370000     2.2002030000    -1.1479760000
 ----------------------------------------------------------------

   10    -629.3829925519      6.28e-07  Convergence criterion met
 Total energy in the final basis set =     -629.3829925519
        RIMP2         total energy =      -630.5687124686 a.u.

                    Orbital Energies (a.u.)
 --------------------------------------------------------------

 Alpha MOs
 -- Occupied --
-91.9741 -11.2683 -11.2607 -11.2478 -11.2350 -11.2273 -11.2121  -8.9745
 -6.6554  -6.6547  -6.6542  -1.1637  -1.0541  -0.9969  -0.9401  -0.8828
 -0.7450  -0.7230  -0.6432  -0.5858  -0.5773  -0.5684  -0.5532  -0.5436
 -0.5135  -0.4939  -0.4580  -0.4393  -0.3367  -0.2857

          Ground-State Mulliken Net Atomic Charges

     Atom                 Charge (a.u.)
  ----------------------------------------
      1 C                     0.000933
      2 C                    -0.254171
      3 C                     0.038362
      4 H                     0.178014
      5 C                    -0.246170
      6 S                     0.004529
      7 C                    -0.269489
      8 H                     0.101396
      9 H                     0.107106
     10 H                     0.105975
     11 C                    -0.386032
     12 H                     0.130013
     13 H                     0.158881
     14 H                     0.138232
     15 H                     0.192420
  ----------------------------------------
  Sum of atomic charges =     0.000000

                    Cartesian Multipole Moments
 -----------------------------------------------------------------
    Charge (ESU x 10^10)
                -0.0000
    Dipole Moment (Debye)
         X       0.4328      Y      -0.2672      Z       1.6856
       Tot       1.7607
    Quadrupole Moments (Debye-Ang)
        XX     -50.5340     XY       5.7864     YY     -46.2709
        XZ       0.1593     YZ       0.1129     ZZ     -48.2046

 Total job time:  172.26s(wall), 170.25s(cpu)
        *  Thank you very much for using Q-Chem.  Have a nice day.  *
