 Q-Chem 5.4, Q-Chem, Inc., Pleasanton, CA (2021)
 Q-Chem 5.4.0 for Intel X86 EM64T Linux

User input:
--------------------------------------------------------------
$molecule
0 1
C	-0.118089	-0.566010	0.019910
C	0.031911	0.284490	1.119310
C	0.272211	1.647390	0.796610
H	-0.032189	-0.078710	2.156010
C	0.310611	1.864690	-0.592590
S	0.045611	0.362090	-1.466890
C	0.461111	2.718590	1.834510
H	0.387211	2.299390	2.856610
H	-0.304089	3.517890	1.746110
H	1.453611	3.207890	1.746110
C	-0.118089	-2.006710	0.019910
H	0.069611	-2.006410	-1.043690
H	0.688611	-2.710510	0.162210
H	-1.050789	-2.525610	-0.144590
H	0.475411	2.799390	-1.141690
$end

$rem
JOBTYPE		SP
EXCHANGE	HF
CORRELATION	pRIMP2
BASIS		cc-pvtz
METHOD		rimp2
AUX_BASIS	rimp2-cc-pvtz
SOLVENT_METHOD	PCM
PURECART	11111
SYMMETRY	false
MEM_TOTAL	110000
SCF_CONVERGENCE = 6
THRESH=10
$end

$solvent
dielectric 4.90
$end
--------------------------------------------------------------

             Standard Nuclear Orientation (Angstroms)
    I     Atom           X                Y                Z
 ----------------------------------------------------------------
    1      C      -0.1180890000    -0.5660100000     0.0199100000
    2      C       0.0319110000     0.2844900000     1.1193100000
    3      C       0.2722110000     1.6473900000     0.7966100000
    4      H      -0.0321890000    -0.0787100000     2.1560100000
    5      C       0.3106110000     1.8646900000    -0.5925900000
    6      S       0.0456110000     0.3620900000    -1.4668900000
    7      C       0.4611110000     2.7185900000     1.8345100000
    8      H       0.3872110000     2.2993900000     2.8566100000
    9      H      -0.3040890000     3.5178900000     1.7461100000
   10      H       1.4536110000     3.2078900000     1.7461100000
   11      C      -0.1180890000    -2.0067100000     0.0199100000
   12      H       0.0696110000    -2.0064100000    -1.0436900000
   13      H       0.6886110000    -2.7105100000     0.1622100000
   14      H      -1.0507890000    -2.5256100000    -0.1445900000
   15      H       0.4754110000     2.7993900000    -1.1416900000
 ----------------------------------------------------------------

   10    -629.4181370258      5.51e-07  Convergence criterion met
 Total energy in the final basis set =     -629.4181370258
        RIMP2         total energy =      -630.5963793594 a.u.

                    Orbital Energies (a.u.)
 --------------------------------------------------------------

 Alpha MOs
 -- Occupied --
-91.9802 -11.2742 -11.2583 -11.2470 -11.2297 -11.2268 -11.2155  -8.9801
 -6.6610  -6.6605  -6.6599  -1.1612  -1.0551  -0.9952  -0.9463  -0.8815
 -0.7481  -0.7187  -0.6483  -0.5906  -0.5757  -0.5659  -0.5535  -0.5474
 -0.5096  -0.4847  -0.4649  -0.4440  -0.3383  -0.3035

          Ground-State Mulliken Net Atomic Charges

     Atom                 Charge (a.u.)
  ----------------------------------------
      1 C                     0.052653
      2 C                    -0.267256
      3 C                     0.043142
      4 H                     0.180087
      5 C                    -0.259420
      6 S                    -0.003464
      7 C                    -0.273205
      8 H                     0.101866
      9 H                     0.106908
     10 H                     0.106813
     11 C                    -0.367762
     12 H                     0.114424
     13 H                     0.144638
     14 H                     0.125049
     15 H                     0.195526
  ----------------------------------------
  Sum of atomic charges =     0.000000

                    Cartesian Multipole Moments
 -----------------------------------------------------------------
    Charge (ESU x 10^10)
                -0.0000
    Dipole Moment (Debye)
         X       0.3703      Y       0.0432      Z       0.8583
       Tot       0.9357
    Quadrupole Moments (Debye-Ang)
        XX     -53.4872     XY       1.1537     YY     -42.5028
        XZ       0.1832     YZ       1.4522     ZZ     -48.8101

 Total job time:  157.04s(wall), 155.61s(cpu)
        *  Thank you very much for using Q-Chem.  Have a nice day.  *
