 Q-Chem 5.4, Q-Chem, Inc., Pleasanton, CA (2021)
 Q-Chem 5.4.0 for Intel X86 EM64T Linux

User input:
--------------------------------------------------------------
$molecule
0 1
C	-0.291450	-0.512746	0.013912
C	0.073550	0.269954	1.113312
C	0.658450	1.524154	0.790612
H	-0.082350	-0.064346	2.150012
C	0.751750	1.724154	-0.598588
S	0.106850	0.341354	-1.472888
C	1.118150	2.509954	1.828512
H	0.938250	2.124254	2.850612
H	0.585850	3.480154	1.740112
H	2.203450	2.725854	1.740112
C	-0.291450	-1.953446	0.013912
H	0.723350	-1.953146	0.383412
H	-0.571650	-2.657246	0.783712
H	0.032450	-2.472346	-0.876088
H	1.152850	2.584454	-1.147688
$end

$rem
JOBTYPE		SP
EXCHANGE	HF
CORRELATION	pRIMP2
BASIS		cc-pvtz
METHOD		rimp2
AUX_BASIS	rimp2-cc-pvtz
SOLVENT_METHOD	PCM
PURECART	11111
SYMMETRY	false
MEM_TOTAL	110000
SCF_CONVERGENCE = 6
THRESH=10
$end

$solvent
dielectric 4.90
$end
--------------------------------------------------------------

             Standard Nuclear Orientation (Angstroms)
    I     Atom           X                Y                Z
 ----------------------------------------------------------------
    1      C      -0.2914500000    -0.5127460000     0.0139120000
    2      C       0.0735500000     0.2699540000     1.1133120000
    3      C       0.6584500000     1.5241540000     0.7906120000
    4      H      -0.0823500000    -0.0643460000     2.1500120000
    5      C       0.7517500000     1.7241540000    -0.5985880000
    6      S       0.1068500000     0.3413540000    -1.4728880000
    7      C       1.1181500000     2.5099540000     1.8285120000
    8      H       0.9382500000     2.1242540000     2.8506120000
    9      H       0.5858500000     3.4801540000     1.7401120000
   10      H       2.2034500000     2.7258540000     1.7401120000
   11      C      -0.2914500000    -1.9534460000     0.0139120000
   12      H       0.7233500000    -1.9531460000     0.3834120000
   13      H      -0.5716500000    -2.6572460000     0.7837120000
   14      H       0.0324500000    -2.4723460000    -0.8760880000
   15      H       1.1528500000     2.5844540000    -1.1476880000
 ----------------------------------------------------------------

   10    -629.4118873196      6.31e-07  Convergence criterion met
 Total energy in the final basis set =     -629.4118873196
        RIMP2         total energy =      -630.5904962328 a.u.

                    Orbital Energies (a.u.)
 --------------------------------------------------------------

 Alpha MOs
 -- Occupied --
-91.9795 -11.2823 -11.2516 -11.2477 -11.2268 -11.2239 -11.2200  -8.9792
 -6.6602  -6.6596  -6.6590  -1.1629  -1.0562  -0.9975  -0.9399  -0.8823
 -0.7438  -0.7206  -0.6485  -0.5878  -0.5755  -0.5675  -0.5560  -0.5451
 -0.5075  -0.4894  -0.4653  -0.4571  -0.3375  -0.2884

          Ground-State Mulliken Net Atomic Charges

     Atom                 Charge (a.u.)
  ----------------------------------------
      1 C                     0.040734
      2 C                    -0.285724
      3 C                     0.047365
      4 H                     0.173654
      5 C                    -0.276821
      6 S                     0.007180
      7 C                    -0.271498
      8 H                     0.101552
      9 H                     0.107531
     10 H                     0.106352
     11 C                    -0.384856
     12 H                     0.151574
     13 H                     0.154293
     14 H                     0.135641
     15 H                     0.193021
  ----------------------------------------
  Sum of atomic charges =     0.000000

                    Cartesian Multipole Moments
 -----------------------------------------------------------------
    Charge (ESU x 10^10)
                -0.0000
    Dipole Moment (Debye)
         X       1.1912      Y      -0.6113      Z       1.6414
       Tot       2.1182
    Quadrupole Moments (Debye-Ang)
        XX     -53.2669     XY       2.0935     YY     -43.7290
        XZ      -0.0431     YZ      -0.3983     ZZ     -48.4568

 Total job time:  158.59s(wall), 156.95s(cpu)
        *  Thank you very much for using Q-Chem.  Have a nice day.  *
