 Q-Chem 5.4, Q-Chem, Inc., Pleasanton, CA (2021)
 Q-Chem 5.4.0 for Intel X86 EM64T Linux

User input:
--------------------------------------------------------------
$molecule
0 1
C	-0.176149	-0.553189	0.019884
C	0.047351	0.281011	1.119284
C	0.405551	1.617711	0.796584
H	-0.048049	-0.075289	2.155984
C	0.462751	1.830811	-0.592616
S	0.067751	0.357111	-1.466916
C	0.687151	2.668411	1.834484
H	0.576951	2.257311	2.856584
H	-0.005449	3.531411	1.746084
H	1.718451	3.069411	1.746084
C	-0.176149	-1.993889	0.019884
H	-0.176049	-1.994089	-1.060116
H	-0.995349	-2.697689	0.019784
H	0.770951	-2.512789	0.019884
H	0.708451	2.747711	-1.141716
$end

$rem
JOBTYPE		SP
EXCHANGE	HF
CORRELATION	pRIMP2
BASIS		cc-pvtz
METHOD		rimp2
AUX_BASIS	rimp2-cc-pvtz
SOLVENT_METHOD	PCM
PURECART	11111
SYMMETRY	false
MEM_TOTAL	110000
SCF_CONVERGENCE = 6
THRESH=10
$end

$solvent
dielectric 4.90
$end
--------------------------------------------------------------

             Standard Nuclear Orientation (Angstroms)
    I     Atom           X                Y                Z
 ----------------------------------------------------------------
    1      C      -0.1761490000    -0.5531890000     0.0198840000
    2      C       0.0473510000     0.2810110000     1.1192840000
    3      C       0.4055510000     1.6177110000     0.7965840000
    4      H      -0.0480490000    -0.0752890000     2.1559840000
    5      C       0.4627510000     1.8308110000    -0.5926160000
    6      S       0.0677510000     0.3571110000    -1.4669160000
    7      C       0.6871510000     2.6684110000     1.8344840000
    8      H       0.5769510000     2.2573110000     2.8565840000
    9      H      -0.0054490000     3.5314110000     1.7460840000
   10      H       1.7184510000     3.0694110000     1.7460840000
   11      C      -0.1761490000    -1.9938890000     0.0198840000
   12      H      -0.1760490000    -1.9940890000    -1.0601160000
   13      H      -0.9953490000    -2.6976890000     0.0197840000
   14      H       0.7709510000    -2.5127890000     0.0198840000
   15      H       0.7084510000     2.7477110000    -1.1417160000
 ----------------------------------------------------------------

   10    -629.4164399591      5.36e-07  Convergence criterion met
 Total energy in the final basis set =     -629.4164399591
        RIMP2         total energy =      -630.5952344089 a.u.

                    Orbital Energies (a.u.)
 --------------------------------------------------------------

 Alpha MOs
 -- Occupied --
-91.9804 -11.2733 -11.2590 -11.2471 -11.2301 -11.2269 -11.2154  -8.9803
 -6.6612  -6.6606  -6.6600  -1.1616  -1.0552  -0.9951  -0.9462  -0.8814
 -0.7483  -0.7190  -0.6476  -0.5917  -0.5755  -0.5657  -0.5535  -0.5474
 -0.5094  -0.4845  -0.4649  -0.4434  -0.3381  -0.3041

          Ground-State Mulliken Net Atomic Charges

     Atom                 Charge (a.u.)
  ----------------------------------------
      1 C                     0.046959
      2 C                    -0.265912
      3 C                     0.044087
      4 H                     0.179297
      5 C                    -0.258463
      6 S                    -0.002691
      7 C                    -0.272672
      8 H                     0.101939
      9 H                     0.106839
     10 H                     0.106695
     11 C                    -0.366754
     12 H                     0.112322
     13 H                     0.146716
     14 H                     0.126261
     15 H                     0.195378
  ----------------------------------------
  Sum of atomic charges =     0.000000

                    Cartesian Multipole Moments
 -----------------------------------------------------------------
    Charge (ESU x 10^10)
                -0.0000
    Dipole Moment (Debye)
         X       0.4358      Y       0.0645      Z       0.8668
       Tot       0.9723
    Quadrupole Moments (Debye-Ang)
        XX     -53.1473     XY       2.3312     YY     -42.8744
        XZ       0.1473     YZ       1.4443     ZZ     -48.7987

 Total job time:  155.91s(wall), 154.95s(cpu)
        *  Thank you very much for using Q-Chem.  Have a nice day.  *
