 Q-Chem 5.4, Q-Chem, Inc., Pleasanton, CA (2021)
 Q-Chem 5.4.0 for Intel X86 EM64T Linux

User input:
--------------------------------------------------------------
$molecule
0 1
C	-0.436318	-0.417597	0.019910
C	0.118782	0.243903	1.119310
C	1.008382	1.304103	0.796610
H	-0.118218	-0.038597	2.156010
C	1.150282	1.473103	-0.592590
S	0.169482	0.304303	-1.466890
C	1.707582	2.137303	1.834510
H	1.433982	1.811303	2.856610
H	1.444582	3.212103	1.746110
H	2.811782	2.064903	1.746110
C	-0.436318	-1.858297	0.019910
H	-0.248618	-1.857997	-1.043690
H	0.370382	-2.562097	0.162210
H	-1.369018	-2.377197	-0.144590
H	1.760382	2.200203	-1.141690
$end

$rem
JOBTYPE		SP
EXCHANGE	HF
CORRELATION	pRIMP2
BASIS		cc-pvtz
METHOD		rimp2
AUX_BASIS	rimp2-cc-pvtz
SOLVENT_METHOD	PCM
PURECART	11111
SYMMETRY	false
MEM_TOTAL	110000
SCF_CONVERGENCE = 6
THRESH=10
$end

$solvent
dielectric 4.90
$end
--------------------------------------------------------------

             Standard Nuclear Orientation (Angstroms)
    I     Atom           X                Y                Z
 ----------------------------------------------------------------
    1      C      -0.4363180000    -0.4175970000     0.0199100000
    2      C       0.1187820000     0.2439030000     1.1193100000
    3      C       1.0083820000     1.3041030000     0.7966100000
    4      H      -0.1182180000    -0.0385970000     2.1560100000
    5      C       1.1502820000     1.4731030000    -0.5925900000
    6      S       0.1694820000     0.3043030000    -1.4668900000
    7      C       1.7075820000     2.1373030000     1.8345100000
    8      H       1.4339820000     1.8113030000     2.8566100000
    9      H       1.4445820000     3.2121030000     1.7461100000
   10      H       2.8117820000     2.0649030000     1.7461100000
   11      C      -0.4363180000    -1.8582970000     0.0199100000
   12      H      -0.2486180000    -1.8579970000    -1.0436900000
   13      H       0.3703820000    -2.5620970000     0.1622100000
   14      H      -1.3690180000    -2.3771970000    -0.1445900000
   15      H       1.7603820000     2.2002030000    -1.1416900000
 ----------------------------------------------------------------

   10    -629.3839916655      6.19e-07  Convergence criterion met
 Total energy in the final basis set =     -629.3839916655
        RIMP2         total energy =      -630.5690349400 a.u.

                    Orbital Energies (a.u.)
 --------------------------------------------------------------

 Alpha MOs
 -- Occupied --
-91.9762 -11.2690 -11.2599 -11.2472 -11.2400 -11.2276 -11.2095  -8.9769
 -6.6578  -6.6570  -6.6566  -1.1663  -1.0555  -0.9941  -0.9453  -0.8797
 -0.7513  -0.7225  -0.6459  -0.5871  -0.5788  -0.5681  -0.5513  -0.5476
 -0.5154  -0.4699  -0.4643  -0.4396  -0.3352  -0.3037

          Ground-State Mulliken Net Atomic Charges

     Atom                 Charge (a.u.)
  ----------------------------------------
      1 C                    -0.024336
      2 C                    -0.218358
      3 C                     0.031233
      4 H                     0.179867
      5 C                    -0.229485
      6 S                    -0.001553
      7 C                    -0.270369
      8 H                     0.101922
      9 H                     0.107030
     10 H                     0.105268
     11 C                    -0.361848
     12 H                     0.119976
     13 H                     0.149311
     14 H                     0.114846
     15 H                     0.196495
  ----------------------------------------
  Sum of atomic charges =     0.000000

                    Cartesian Multipole Moments
 -----------------------------------------------------------------
    Charge (ESU x 10^10)
                -0.0000
    Dipole Moment (Debye)
         X       1.4891      Y       0.2812      Z       1.0043
       Tot       1.8180
    Quadrupole Moments (Debye-Ang)
        XX     -50.5503     XY       4.0336     YY     -46.6286
        XZ       0.2415     YZ       1.2365     ZZ     -48.4054

 Total job time:  159.19s(wall), 157.17s(cpu)
        *  Thank you very much for using Q-Chem.  Have a nice day.  *
