 Q-Chem 5.4, Q-Chem, Inc., Pleasanton, CA (2021)
 Q-Chem 5.4.0 for Intel X86 EM64T Linux

User input:
--------------------------------------------------------------
$molecule
0 1
C	-0.438719	-0.417597	0.019118
C	0.116381	0.243903	1.118518
C	1.005981	1.304103	0.795818
H	-0.120619	-0.038597	2.155218
C	1.147881	1.473103	-0.593382
S	0.167081	0.304303	-1.467682
C	1.705181	2.137303	1.833718
H	1.431581	1.811303	2.855818
H	1.442181	3.212103	1.745318
H	2.809381	2.064903	1.745318
C	-0.438719	-1.858297	0.019118
H	0.255581	-1.857997	-0.808182
H	0.188781	-2.562097	0.545718
H	-1.164319	-2.377197	-0.589682
H	1.757981	2.200203	-1.142482
$end

$rem
JOBTYPE		SP
EXCHANGE	HF
CORRELATION	pRIMP2
BASIS		cc-pvtz
METHOD		rimp2
AUX_BASIS	rimp2-cc-pvtz
SOLVENT_METHOD	PCM
PURECART	11111
SYMMETRY	false
MEM_TOTAL	110000
SCF_CONVERGENCE = 6
THRESH=10
$end

$solvent
dielectric 4.90
$end
--------------------------------------------------------------

             Standard Nuclear Orientation (Angstroms)
    I     Atom           X                Y                Z
 ----------------------------------------------------------------
    1      C      -0.4387190000    -0.4175970000     0.0191180000
    2      C       0.1163810000     0.2439030000     1.1185180000
    3      C       1.0059810000     1.3041030000     0.7958180000
    4      H      -0.1206190000    -0.0385970000     2.1552180000
    5      C       1.1478810000     1.4731030000    -0.5933820000
    6      S       0.1670810000     0.3043030000    -1.4676820000
    7      C       1.7051810000     2.1373030000     1.8337180000
    8      H       1.4315810000     1.8113030000     2.8558180000
    9      H       1.4421810000     3.2121030000     1.7453180000
   10      H       2.8093810000     2.0649030000     1.7453180000
   11      C      -0.4387190000    -1.8582970000     0.0191180000
   12      H       0.2555810000    -1.8579970000    -0.8081820000
   13      H       0.1887810000    -2.5620970000     0.5457180000
   14      H      -1.1643190000    -2.3771970000    -0.5896820000
   15      H       1.7579810000     2.2002030000    -1.1424820000
 ----------------------------------------------------------------

   10    -629.3857916118      6.29e-07  Convergence criterion met
 Total energy in the final basis set =     -629.3857916118
        RIMP2         total energy =      -630.5695941728 a.u.

                    Orbital Energies (a.u.)
 --------------------------------------------------------------

 Alpha MOs
 -- Occupied --
-91.9733 -11.2667 -11.2655 -11.2475 -11.2378 -11.2276 -11.2116  -8.9744
 -6.6553  -6.6546  -6.6541  -1.1671  -1.0565  -0.9942  -0.9442  -0.8795
 -0.7501  -0.7224  -0.6465  -0.5862  -0.5806  -0.5655  -0.5521  -0.5478
 -0.5138  -0.4819  -0.4619  -0.4423  -0.3387  -0.2947

          Ground-State Mulliken Net Atomic Charges

     Atom                 Charge (a.u.)
  ----------------------------------------
      1 C                     0.001473
      2 C                    -0.246396
      3 C                     0.031002
      4 H                     0.180236
      5 C                    -0.233428
      6 S                    -0.006779
      7 C                    -0.269918
      8 H                     0.101616
      9 H                     0.107699
     10 H                     0.105931
     11 C                    -0.376757
     12 H                     0.136040
     13 H                     0.155665
     14 H                     0.118922
     15 H                     0.194694
  ----------------------------------------
  Sum of atomic charges =     0.000000

                    Cartesian Multipole Moments
 -----------------------------------------------------------------
    Charge (ESU x 10^10)
                -0.0000
    Dipole Moment (Debye)
         X       1.6881      Y      -0.0100      Z       1.1295
       Tot       2.0311
    Quadrupole Moments (Debye-Ang)
        XX     -51.0329     XY       3.4426     YY     -46.4617
        XZ       0.3925     YZ       1.0599     ZZ     -48.4066

 Total job time:  160.54s(wall), 159.06s(cpu)
        *  Thank you very much for using Q-Chem.  Have a nice day.  *
