 Q-Chem 5.4, Q-Chem, Inc., Pleasanton, CA (2021)
 Q-Chem 5.4.0 for Intel X86 EM64T Linux

User input:
--------------------------------------------------------------
$molecule
0 1
C	-0.352117	-0.486129	0.014458
C	0.079683	0.261771	1.113858
C	0.771683	1.460271	0.791158
H	-0.104717	-0.057629	2.150558
C	0.881983	1.651371	-0.598042
S	0.119083	0.329971	-1.472342
C	1.315583	2.402271	1.829058
H	1.102783	2.033671	2.851158
H	0.869883	3.415071	1.740658
H	2.415583	2.522671	1.740658
C	-0.101917	-1.904929	0.014458
H	-1.165617	-2.092129	0.014358
H	0.020283	-2.598029	-0.804742
H	-0.011817	-2.416029	0.961558
H	1.356683	2.473371	-1.147142
$end

$rem
JOBTYPE		SP
EXCHANGE	HF
CORRELATION	pRIMP2
BASIS		cc-pvtz
METHOD		rimp2
AUX_BASIS	rimp2-cc-pvtz
SOLVENT_METHOD	PCM
PURECART	11111
SYMMETRY	false
MEM_TOTAL	110000
SCF_CONVERGENCE = 6
THRESH=10
$end

$solvent
dielectric 4.90
$end
--------------------------------------------------------------

             Standard Nuclear Orientation (Angstroms)
    I     Atom           X                Y                Z
 ----------------------------------------------------------------
    1      C      -0.3521170000    -0.4861290000     0.0144580000
    2      C       0.0796830000     0.2617710000     1.1138580000
    3      C       0.7716830000     1.4602710000     0.7911580000
    4      H      -0.1047170000    -0.0576290000     2.1505580000
    5      C       0.8819830000     1.6513710000    -0.5980420000
    6      S       0.1190830000     0.3299710000    -1.4723420000
    7      C       1.3155830000     2.4022710000     1.8290580000
    8      H       1.1027830000     2.0336710000     2.8511580000
    9      H       0.8698830000     3.4150710000     1.7406580000
   10      H       2.4155830000     2.5226710000     1.7406580000
   11      C      -0.1019170000    -1.9049290000     0.0144580000
   12      H      -1.1656170000    -2.0921290000     0.0143580000
   13      H       0.0202830000    -2.5980290000    -0.8047420000
   14      H      -0.0118170000    -2.4160290000     0.9615580000
   15      H       1.3566830000     2.4733710000    -1.1471420000
 ----------------------------------------------------------------

   10    -629.3821468993      6.21e-07  Convergence criterion met
 Total energy in the final basis set =     -629.3821468993
        RIMP2         total energy =      -630.5677447677 a.u.

                    Orbital Energies (a.u.)
 --------------------------------------------------------------

 Alpha MOs
 -- Occupied --
-91.9747 -11.2680 -11.2608 -11.2476 -11.2344 -11.2271 -11.2119  -8.9751
 -6.6560  -6.6553  -6.6548  -1.1636  -1.0540  -0.9965  -0.9407  -0.8825
 -0.7455  -0.7226  -0.6430  -0.5855  -0.5764  -0.5700  -0.5519  -0.5438
 -0.5135  -0.4932  -0.4573  -0.4412  -0.3368  -0.2852

          Ground-State Mulliken Net Atomic Charges

     Atom                 Charge (a.u.)
  ----------------------------------------
      1 C                    -0.005384
      2 C                    -0.247022
      3 C                     0.038128
      4 H                     0.179708
      5 C                    -0.247780
      6 S                     0.003416
      7 C                    -0.269668
      8 H                     0.101483
      9 H                     0.107016
     10 H                     0.105778
     11 C                    -0.383513
     12 H                     0.128750
     13 H                     0.160378
     14 H                     0.135474
     15 H                     0.193236
  ----------------------------------------
  Sum of atomic charges =     0.000000

                    Cartesian Multipole Moments
 -----------------------------------------------------------------
    Charge (ESU x 10^10)
                -0.0000
    Dipole Moment (Debye)
         X       0.4717      Y      -0.1741      Z       1.5652
       Tot       1.6440
    Quadrupole Moments (Debye-Ang)
        XX     -52.4160     XY       4.6719     YY     -44.4288
        XZ       0.0019     YZ       0.3124     ZZ     -48.1738

 Total job time:  161.00s(wall), 156.19s(cpu)
        *  Thank you very much for using Q-Chem.  Have a nice day.  *
