 Q-Chem 5.4, Q-Chem, Inc., Pleasanton, CA (2021)
 Q-Chem 5.4.0 for Intel X86 EM64T Linux

User input:
--------------------------------------------------------------
$molecule
0 1
C	-0.233419	-0.535397	0.010354
C	0.061981	0.276103	1.109754
C	0.535281	1.576503	0.787054
H	-0.064119	-0.070397	2.146454
C	0.610781	1.783903	-0.602146
S	0.088881	0.350203	-1.476446
C	0.907381	2.598703	1.824954
H	0.761781	2.198703	2.847054
H	0.292581	3.518703	1.736554
H	1.969781	2.908303	1.736554
C	-0.233419	-1.976097	0.010354
H	-0.046019	-1.975797	1.073954
H	-1.040219	-2.679897	0.152554
H	0.699281	-2.494997	-0.154146
H	0.935481	2.675903	-1.151246
$end

$rem
JOBTYPE		SP
EXCHANGE	HF
CORRELATION	pRIMP2
BASIS		cc-pvtz
METHOD		rimp2
AUX_BASIS	rimp2-cc-pvtz
SOLVENT_METHOD	PCM
PURECART	11111
SYMMETRY	false
MEM_TOTAL	110000
SCF_CONVERGENCE = 6
THRESH=10
$end

$solvent
dielectric 4.90
$end
--------------------------------------------------------------

   10    -629.4168474807      4.90e-07  Convergence criterion met
 Total energy in the final basis set =     -629.4168474807
        RIMP2         total energy =      -630.5963880599 a.u.
 Total job time:  158.67s(wall), 156.51s(cpu)
        *  Thank you very much for using Q-Chem.  Have a nice day.  *
 Q-Chem 5.4, Q-Chem, Inc., Pleasanton, CA (2021)
 Q-Chem 5.4.0 for Intel X86 EM64T Linux

User input:
--------------------------------------------------------------
$molecule
0 1
C	-0.233419	-0.535397	0.010354
C	0.061981	0.276103	1.109754
C	0.535281	1.576503	0.787054
H	-0.064119	-0.070397	2.146454
C	0.610781	1.783903	-0.602146
S	0.088881	0.350203	-1.476446
C	0.907381	2.598703	1.824954
H	0.761781	2.198703	2.847054
H	0.292581	3.518703	1.736554
H	1.969781	2.908303	1.736554
C	-0.233419	-1.976097	0.010354
H	-0.046019	-1.975797	1.073954
H	-1.040219	-2.679897	0.152554
H	0.699281	-2.494997	-0.154146
H	0.935481	2.675903	-1.151246
$end

$rem
JOBTYPE		SP
EXCHANGE	HF
CORRELATION	pRIMP2
BASIS		cc-pvtz
METHOD		rimp2
AUX_BASIS	rimp2-cc-pvtz
SOLVENT_METHOD	PCM
PURECART	11111
SYMMETRY	false
MEM_TOTAL	110000
SCF_CONVERGENCE = 6
THRESH=10
$end

$solvent
dielectric 4.90
$end
--------------------------------------------------------------

             Standard Nuclear Orientation (Angstroms)
    I     Atom           X                Y                Z
 ----------------------------------------------------------------
    1      C      -0.2334190000    -0.5353970000     0.0103540000
    2      C       0.0619810000     0.2761030000     1.1097540000
    3      C       0.5352810000     1.5765030000     0.7870540000
    4      H      -0.0641190000    -0.0703970000     2.1464540000
    5      C       0.6107810000     1.7839030000    -0.6021460000
    6      S       0.0888810000     0.3502030000    -1.4764460000
    7      C       0.9073810000     2.5987030000     1.8249540000
    8      H       0.7617810000     2.1987030000     2.8470540000
    9      H       0.2925810000     3.5187030000     1.7365540000
   10      H       1.9697810000     2.9083030000     1.7365540000
   11      C      -0.2334190000    -1.9760970000     0.0103540000
   12      H      -0.0460190000    -1.9757970000     1.0739540000
   13      H      -1.0402190000    -2.6798970000     0.1525540000
   14      H       0.6992810000    -2.4949970000    -0.1541460000
   15      H       0.9354810000     2.6759030000    -1.1512460000
 ----------------------------------------------------------------

   10    -629.4168474807      4.90e-07  Convergence criterion met
 Total energy in the final basis set =     -629.4168474807
        RIMP2         total energy =      -630.5963880599 a.u.

                    Orbital Energies (a.u.)
 --------------------------------------------------------------

 Alpha MOs
 -- Occupied --
-91.9750 -11.2752 -11.2591 -11.2471 -11.2352 -11.2276 -11.2151  -8.9751
 -6.6560  -6.6555  -6.6550  -1.1623  -1.0541  -0.9996  -0.9388  -0.8841
 -0.7426  -0.7251  -0.6477  -0.5918  -0.5780  -0.5664  -0.5589  -0.5420
 -0.5111  -0.4819  -0.4682  -0.4377  -0.3372  -0.3036

          Ground-State Mulliken Net Atomic Charges

     Atom                 Charge (a.u.)
  ----------------------------------------
      1 C                     0.045418
      2 C                    -0.269001
      3 C                     0.036068
      4 H                     0.176601
      5 C                    -0.248345
      6 S                    -0.006119
      7 C                    -0.271794
      8 H                     0.101175
      9 H                     0.107119
     10 H                     0.106995
     11 C                    -0.370024
     12 H                     0.122896
     13 H                     0.143533
     14 H                     0.132453
     15 H                     0.193024
  ----------------------------------------
  Sum of atomic charges =     0.000000

                    Cartesian Multipole Moments
 -----------------------------------------------------------------
    Charge (ESU x 10^10)
                -0.0000
    Dipole Moment (Debye)
         X       0.6757      Y      -0.0315      Z       2.1523
       Tot       2.2561
    Quadrupole Moments (Debye-Ang)
        XX     -52.8250     XY       2.6623     YY     -43.4144
        XZ      -0.1912     YZ      -1.1017     ZZ     -48.8586

 Total job time:  158.65s(wall), 157.35s(cpu)
        *  Thank you very much for using Q-Chem.  Have a nice day.  *
