 Q-Chem 5.4, Q-Chem, Inc., Pleasanton, CA (2021)
 Q-Chem 5.4.0 for Intel X86 EM64T Linux

User input:
--------------------------------------------------------------
$molecule
0 1
C	0.001102	-0.576312	0.010277
C	0.001102	0.287288	1.109677
C	0.001202	1.671188	0.786977
H	0.001102	-0.081512	2.146377
C	0.001202	1.891888	-0.602223
S	0.001102	0.366088	-1.476523
C	0.001202	2.758988	1.824877
H	0.001202	2.333288	2.846977
H	-0.891198	3.413288	1.736477
H	0.893602	3.413188	1.736477
C	0.001102	-2.017012	0.010277
H	-0.368398	-2.016712	1.025077
H	-0.768698	-2.720812	-0.269923
H	0.891102	-2.535912	0.334177
H	0.001202	2.841088	-1.151323
$end

$rem
JOBTYPE		SP
EXCHANGE	HF
CORRELATION	pRIMP2
BASIS		cc-pvtz
METHOD		rimp2
AUX_BASIS	rimp2-cc-pvtz
SOLVENT_METHOD	PCM
PURECART	11111
SYMMETRY	false
MEM_TOTAL	110000
SCF_CONVERGENCE = 6
THRESH=10
$end

$solvent
dielectric 4.90
$end
--------------------------------------------------------------

   10    -629.4246178724      5.11e-07  Convergence criterion met
 Total energy in the final basis set =     -629.4246178724
        RIMP2         total energy =      -630.6024084564 a.u.
 Total job time:  156.62s(wall), 154.90s(cpu)
        *  Thank you very much for using Q-Chem.  Have a nice day.  *
 Q-Chem 5.4, Q-Chem, Inc., Pleasanton, CA (2021)
 Q-Chem 5.4.0 for Intel X86 EM64T Linux

User input:
--------------------------------------------------------------
$molecule
0 1
C	0.001102	-0.576312	0.010277
C	0.001102	0.287288	1.109677
C	0.001202	1.671188	0.786977
H	0.001102	-0.081512	2.146377
C	0.001202	1.891888	-0.602223
S	0.001102	0.366088	-1.476523
C	0.001202	2.758988	1.824877
H	0.001202	2.333288	2.846977
H	-0.891198	3.413288	1.736477
H	0.893602	3.413188	1.736477
C	0.001102	-2.017012	0.010277
H	-0.368398	-2.016712	1.025077
H	-0.768698	-2.720812	-0.269923
H	0.891102	-2.535912	0.334177
H	0.001202	2.841088	-1.151323
$end

$rem
JOBTYPE		SP
EXCHANGE	HF
CORRELATION	pRIMP2
BASIS		cc-pvtz
METHOD		rimp2
AUX_BASIS	rimp2-cc-pvtz
SOLVENT_METHOD	PCM
PURECART	11111
SYMMETRY	false
MEM_TOTAL	110000
SCF_CONVERGENCE = 6
THRESH=10
$end

$solvent
dielectric 4.90
$end
--------------------------------------------------------------

             Standard Nuclear Orientation (Angstroms)
    I     Atom           X                Y                Z
 ----------------------------------------------------------------
    1      C       0.0011020000    -0.5763120000     0.0102770000
    2      C       0.0011020000     0.2872880000     1.1096770000
    3      C       0.0012020000     1.6711880000     0.7869770000
    4      H       0.0011020000    -0.0815120000     2.1463770000
    5      C       0.0012020000     1.8918880000    -0.6022230000
    6      S       0.0011020000     0.3660880000    -1.4765230000
    7      C       0.0012020000     2.7589880000     1.8248770000
    8      H       0.0012020000     2.3332880000     2.8469770000
    9      H      -0.8911980000     3.4132880000     1.7364770000
   10      H       0.8936020000     3.4131880000     1.7364770000
   11      C       0.0011020000    -2.0170120000     0.0102770000
   12      H      -0.3683980000    -2.0167120000     1.0250770000
   13      H      -0.7686980000    -2.7208120000    -0.2699230000
   14      H       0.8911020000    -2.5359120000     0.3341770000
   15      H       0.0012020000     2.8410880000    -1.1513230000
 ----------------------------------------------------------------

   10    -629.4246178724      5.11e-07  Convergence criterion met
 Total energy in the final basis set =     -629.4246178724
        RIMP2         total energy =      -630.6024084564 a.u.

                    Orbital Energies (a.u.)
 --------------------------------------------------------------

 Alpha MOs
 -- Occupied --
-91.9753 -11.2790 -11.2558 -11.2471 -11.2328 -11.2273 -11.2169  -8.9754
 -6.6563  -6.6557  -6.6552  -1.1608  -1.0542  -0.9996  -0.9396  -0.8844
 -0.7422  -0.7234  -0.6486  -0.5920  -0.5771  -0.5672  -0.5593  -0.5422
 -0.5101  -0.4857  -0.4676  -0.4397  -0.3376  -0.3019

          Ground-State Mulliken Net Atomic Charges

     Atom                 Charge (a.u.)
  ----------------------------------------
      1 C                     0.067075
      2 C                    -0.270254
      3 C                     0.030688
      4 H                     0.177139
      5 C                    -0.254943
      6 S                    -0.007285
      7 C                    -0.274021
      8 H                     0.101121
      9 H                     0.107154
     10 H                     0.107325
     11 C                    -0.378660
     12 H                     0.124067
     13 H                     0.151906
     14 H                     0.125853
     15 H                     0.192835
  ----------------------------------------
  Sum of atomic charges =     0.000000

                    Cartesian Multipole Moments
 -----------------------------------------------------------------
    Charge (ESU x 10^10)
                -0.0000
    Dipole Moment (Debye)
         X      -0.2119      Y      -0.1711      Z       2.1140
       Tot       2.1315
    Quadrupole Moments (Debye-Ang)
        XX     -53.7619     XY       0.6516     YY     -42.1280
        XZ       0.2028     YZ      -0.9667     ZZ     -48.9216

 Total job time:  163.83s(wall), 161.01s(cpu)
        *  Thank you very much for using Q-Chem.  Have a nice day.  *
