 Q-Chem 5.4, Q-Chem, Inc., Pleasanton, CA (2021)
 Q-Chem 5.4.0 for Intel X86 EM64T Linux

User input:
--------------------------------------------------------------
$molecule
0 1
C	-0.172227	-0.553189	0.018592
C	0.051273	0.281011	1.117992
C	0.409473	1.617711	0.795292
H	-0.044127	-0.075289	2.154692
C	0.466673	1.830811	-0.593908
S	0.071673	0.357111	-1.468208
C	0.691073	2.668411	1.833192
H	0.580873	2.257311	2.855292
H	-0.001527	3.531411	1.744792
H	1.722373	3.069411	1.744792
C	-0.172227	-1.993889	0.018592
H	-0.999527	-1.994089	-0.675708
H	-0.698827	-2.697689	0.646092
H	0.436573	-2.512789	-0.707008
H	0.712373	2.747711	-1.143008
$end

$rem
JOBTYPE		SP
EXCHANGE	HF
CORRELATION	pRIMP2
BASIS		cc-pvtz
METHOD		rimp2
AUX_BASIS	rimp2-cc-pvtz
SOLVENT_METHOD	PCM
PURECART	11111
SYMMETRY	false
MEM_TOTAL	110000
SCF_CONVERGENCE = 6
THRESH=10
$end

$solvent
dielectric 4.90
$end
--------------------------------------------------------------

             Standard Nuclear Orientation (Angstroms)
    I     Atom           X                Y                Z
 ----------------------------------------------------------------
    1      C      -0.1722270000    -0.5531890000     0.0185920000
    2      C       0.0512730000     0.2810110000     1.1179920000
    3      C       0.4094730000     1.6177110000     0.7952920000
    4      H      -0.0441270000    -0.0752890000     2.1546920000
    5      C       0.4666730000     1.8308110000    -0.5939080000
    6      S       0.0716730000     0.3571110000    -1.4682080000
    7      C       0.6910730000     2.6684110000     1.8331920000
    8      H       0.5808730000     2.2573110000     2.8552920000
    9      H      -0.0015270000     3.5314110000     1.7447920000
   10      H       1.7223730000     3.0694110000     1.7447920000
   11      C      -0.1722270000    -1.9938890000     0.0185920000
   12      H      -0.9995270000    -1.9940890000    -0.6757080000
   13      H      -0.6988270000    -2.6976890000     0.6460920000
   14      H       0.4365730000    -2.5127890000    -0.7070080000
   15      H       0.7123730000     2.7477110000    -1.1430080000
 ----------------------------------------------------------------

   10    -629.4169376335      5.94e-07  Convergence criterion met
 Total energy in the final basis set =     -629.4169376335
        RIMP2         total energy =      -630.5942797971 a.u.

                    Orbital Energies (a.u.)
 --------------------------------------------------------------

 Alpha MOs
 -- Occupied --
-91.9794 -11.2785 -11.2547 -11.2469 -11.2265 -11.2265 -11.2178  -8.9792
 -6.6602  -6.6597  -6.6591  -1.1608  -1.0554  -0.9958  -0.9449  -0.8819
 -0.7461  -0.7185  -0.6479  -0.5896  -0.5746  -0.5668  -0.5529  -0.5469
 -0.5092  -0.4884  -0.4638  -0.4524  -0.3388  -0.2939

          Ground-State Mulliken Net Atomic Charges

     Atom                 Charge (a.u.)
  ----------------------------------------
      1 C                     0.027902
      2 C                    -0.260928
      3 C                     0.034130
      4 H                     0.180262
      5 C                    -0.256561
      6 S                    -0.005748
      7 C                    -0.273541
      8 H                     0.101463
      9 H                     0.107013
     10 H                     0.106933
     11 C                    -0.373490
     12 H                     0.123912
     13 H                     0.159934
     14 H                     0.134187
     15 H                     0.194533
  ----------------------------------------
  Sum of atomic charges =     0.000000

                    Cartesian Multipole Moments
 -----------------------------------------------------------------
    Charge (ESU x 10^10)
                -0.0000
    Dipole Moment (Debye)
         X      -0.1561      Y      -0.3035      Z       1.0218
       Tot       1.0772
    Quadrupole Moments (Debye-Ang)
        XX     -53.4016     XY       3.4424     YY     -42.5593
        XZ      -0.2320     YZ       0.9757     ZZ     -48.6611

 Total job time:  155.38s(wall), 154.41s(cpu)
        *  Thank you very much for using Q-Chem.  Have a nice day.  *
