 Q-Chem 5.4, Q-Chem, Inc., Pleasanton, CA (2021)
 Q-Chem 5.4.0 for Intel X86 EM64T Linux

User input:
--------------------------------------------------------------
$molecule
0 1
C	-0.113133	-0.566007	0.016441
C	0.036867	0.284493	1.115841
C	0.277167	1.647393	0.793141
H	-0.027233	-0.078707	2.152541
C	0.315567	1.864693	-0.596059
S	0.050567	0.362093	-1.470359
C	0.466067	2.718593	1.831041
H	0.392167	2.299393	2.853141
H	-0.299133	3.517893	1.742641
H	1.458567	3.207893	1.742641
C	-0.113133	-2.006707	0.016441
H	-1.176733	-2.006907	-0.171259
H	-0.255433	-2.710507	0.823141
H	0.051367	-2.525607	-0.916259
H	0.480367	2.799393	-1.145159
$end

$rem
JOBTYPE		SP
EXCHANGE	HF
CORRELATION	pRIMP2
BASIS		cc-pvtz
METHOD		rimp2
AUX_BASIS	rimp2-cc-pvtz
SOLVENT_METHOD	PCM
PURECART	11111
SYMMETRY	false
MEM_TOTAL	110000
SCF_CONVERGENCE = 6
THRESH=10
$end

$solvent
dielectric 4.90
$end
--------------------------------------------------------------

   10    -629.4204707664      6.87e-07  Convergence criterion met
 Total energy in the final basis set =     -629.4204707664
        RIMP2         total energy =      -630.5963414598 a.u.
 Total job time:  157.10s(wall), 154.95s(cpu)
        *  Thank you very much for using Q-Chem.  Have a nice day.  *
 Q-Chem 5.4, Q-Chem, Inc., Pleasanton, CA (2021)
 Q-Chem 5.4.0 for Intel X86 EM64T Linux

User input:
--------------------------------------------------------------
$molecule
0 1
C	-0.113133	-0.566007	0.016441
C	0.036867	0.284493	1.115841
C	0.277167	1.647393	0.793141
H	-0.027233	-0.078707	2.152541
C	0.315567	1.864693	-0.596059
S	0.050567	0.362093	-1.470359
C	0.466067	2.718593	1.831041
H	0.392167	2.299393	2.853141
H	-0.299133	3.517893	1.742641
H	1.458567	3.207893	1.742641
C	-0.113133	-2.006707	0.016441
H	-1.176733	-2.006907	-0.171259
H	-0.255433	-2.710507	0.823141
H	0.051367	-2.525607	-0.916259
H	0.480367	2.799393	-1.145159
$end

$rem
JOBTYPE		SP
EXCHANGE	HF
CORRELATION	pRIMP2
BASIS		cc-pvtz
METHOD		rimp2
AUX_BASIS	rimp2-cc-pvtz
SOLVENT_METHOD	PCM
PURECART	11111
SYMMETRY	false
MEM_TOTAL	110000
SCF_CONVERGENCE = 6
THRESH=10
$end

$solvent
dielectric 4.90
$end
--------------------------------------------------------------

             Standard Nuclear Orientation (Angstroms)
    I     Atom           X                Y                Z
 ----------------------------------------------------------------
    1      C      -0.1131330000    -0.5660070000     0.0164410000
    2      C       0.0368670000     0.2844930000     1.1158410000
    3      C       0.2771670000     1.6473930000     0.7931410000
    4      H      -0.0272330000    -0.0787070000     2.1525410000
    5      C       0.3155670000     1.8646930000    -0.5960590000
    6      S       0.0505670000     0.3620930000    -1.4703590000
    7      C       0.4660670000     2.7185930000     1.8310410000
    8      H       0.3921670000     2.2993930000     2.8531410000
    9      H      -0.2991330000     3.5178930000     1.7426410000
   10      H       1.4585670000     3.2078930000     1.7426410000
   11      C      -0.1131330000    -2.0067070000     0.0164410000
   12      H      -1.1767330000    -2.0069070000    -0.1712590000
   13      H      -0.2554330000    -2.7105070000     0.8231410000
   14      H       0.0513670000    -2.5256070000    -0.9162590000
   15      H       0.4803670000     2.7993930000    -1.1451590000
 ----------------------------------------------------------------

   10    -629.4204707664      6.87e-07  Convergence criterion met
 Total energy in the final basis set =     -629.4204707664
        RIMP2         total energy =      -630.5963414598 a.u.

                    Orbital Energies (a.u.)
 --------------------------------------------------------------

 Alpha MOs
 -- Occupied --
-91.9788 -11.2839 -11.2497 -11.2467 -11.2262 -11.2230 -11.2209  -8.9786
 -6.6597  -6.6591  -6.6585  -1.1601  -1.0560  -0.9967  -0.9432  -0.8824
 -0.7443  -0.7184  -0.6490  -0.5867  -0.5740  -0.5678  -0.5532  -0.5467
 -0.5082  -0.4941  -0.4632  -0.4571  -0.3385  -0.2883

          Ground-State Mulliken Net Atomic Charges

     Atom                 Charge (a.u.)
  ----------------------------------------
      1 C                     0.053413
      2 C                    -0.294937
      3 C                     0.046029
      4 H                     0.177675
      5 C                    -0.277522
      6 S                    -0.000333
      7 C                    -0.273634
      8 H                     0.101305
      9 H                     0.107181
     10 H                     0.107146
     11 C                    -0.381999
     12 H                     0.138158
     13 H                     0.164863
     14 H                     0.138954
     15 H                     0.193703
  ----------------------------------------
  Sum of atomic charges =     0.000000

                    Cartesian Multipole Moments
 -----------------------------------------------------------------
    Charge (ESU x 10^10)
                -0.0000
    Dipole Moment (Debye)
         X      -0.5278      Y      -0.6704      Z       1.2674
       Tot       1.5279
    Quadrupole Moments (Debye-Ang)
        XX     -53.9981     XY       3.0711     YY     -42.0152
        XZ      -0.0875     YZ       0.4340     ZZ     -48.5562

 Total job time:  157.13s(wall), 155.43s(cpu)
        *  Thank you very much for using Q-Chem.  Have a nice day.  *
