 Q-Chem 5.4, Q-Chem, Inc., Pleasanton, CA (2021)
 Q-Chem 5.4.0 for Intel X86 EM64T Linux

User input:
--------------------------------------------------------------
$molecule
0 1
C	-0.343667	-0.485419	0.016960
C	0.088133	0.262481	1.116360
C	0.780133	1.460981	0.793660
H	-0.096267	-0.056919	2.153060
C	0.890433	1.652081	-0.595540
S	0.127533	0.330681	-1.469840
C	1.324033	2.402981	1.831560
H	1.111233	2.034381	2.853660
H	0.878333	3.415781	1.743160
H	2.424033	2.523381	1.743160
C	-0.343667	-1.926119	0.016960
H	0.591733	-1.926319	-0.522940
H	-0.753167	-2.629919	-0.692540
H	0.129933	-2.445019	0.837160
H	1.365133	2.474081	-1.144640
$end

$rem
JOBTYPE		SP
EXCHANGE	HF
CORRELATION	pRIMP2
BASIS		cc-pvtz
METHOD		rimp2
AUX_BASIS	rimp2-cc-pvtz
SOLVENT_METHOD	PCM
PURECART	11111
SYMMETRY	false
MEM_TOTAL	110000
SCF_CONVERGENCE = 6
THRESH=10
$end

$solvent
dielectric 4.90
$end
--------------------------------------------------------------

   10    -629.4077025344      6.64e-07  Convergence criterion met
 Total energy in the final basis set =     -629.4077025344
        RIMP2         total energy =      -630.5869796941 a.u.
 Total job time:  158.63s(wall), 157.69s(cpu)
        *  Thank you very much for using Q-Chem.  Have a nice day.  *
 Q-Chem 5.4, Q-Chem, Inc., Pleasanton, CA (2021)
 Q-Chem 5.4.0 for Intel X86 EM64T Linux

User input:
--------------------------------------------------------------
$molecule
0 1
C	-0.343667	-0.485419	0.016960
C	0.088133	0.262481	1.116360
C	0.780133	1.460981	0.793660
H	-0.096267	-0.056919	2.153060
C	0.890433	1.652081	-0.595540
S	0.127533	0.330681	-1.469840
C	1.324033	2.402981	1.831560
H	1.111233	2.034381	2.853660
H	0.878333	3.415781	1.743160
H	2.424033	2.523381	1.743160
C	-0.343667	-1.926119	0.016960
H	0.591733	-1.926319	-0.522940
H	-0.753167	-2.629919	-0.692540
H	0.129933	-2.445019	0.837160
H	1.365133	2.474081	-1.144640
$end

$rem
JOBTYPE		SP
EXCHANGE	HF
CORRELATION	pRIMP2
BASIS		cc-pvtz
METHOD		rimp2
AUX_BASIS	rimp2-cc-pvtz
SOLVENT_METHOD	PCM
PURECART	11111
SYMMETRY	false
MEM_TOTAL	110000
SCF_CONVERGENCE = 6
THRESH=10
$end

$solvent
dielectric 4.90
$end
--------------------------------------------------------------

             Standard Nuclear Orientation (Angstroms)
    I     Atom           X                Y                Z
 ----------------------------------------------------------------
    1      C      -0.3436670000    -0.4854190000     0.0169600000
    2      C       0.0881330000     0.2624810000     1.1163600000
    3      C       0.7801330000     1.4609810000     0.7936600000
    4      H      -0.0962670000    -0.0569190000     2.1530600000
    5      C       0.8904330000     1.6520810000    -0.5955400000
    6      S       0.1275330000     0.3306810000    -1.4698400000
    7      C       1.3240330000     2.4029810000     1.8315600000
    8      H       1.1112330000     2.0343810000     2.8536600000
    9      H       0.8783330000     3.4157810000     1.7431600000
   10      H       2.4240330000     2.5233810000     1.7431600000
   11      C      -0.3436670000    -1.9261190000     0.0169600000
   12      H       0.5917330000    -1.9263190000    -0.5229400000
   13      H      -0.7531670000    -2.6299190000    -0.6925400000
   14      H       0.1299330000    -2.4450190000     0.8371600000
   15      H       1.3651330000     2.4740810000    -1.1446400000
 ----------------------------------------------------------------

   10    -629.4077025344      6.64e-07  Convergence criterion met
 Total energy in the final basis set =     -629.4077025344
        RIMP2         total energy =      -630.5869796941 a.u.

                    Orbital Energies (a.u.)
 --------------------------------------------------------------

 Alpha MOs
 -- Occupied --
-91.9744 -11.2784 -11.2568 -11.2475 -11.2303 -11.2271 -11.2186  -8.9750
 -6.6560  -6.6554  -6.6548  -1.1644  -1.0567  -0.9955  -0.9426  -0.8810
 -0.7470  -0.7206  -0.6461  -0.5895  -0.5798  -0.5661  -0.5505  -0.5477
 -0.5084  -0.4931  -0.4623  -0.4503  -0.3399  -0.2910

          Ground-State Mulliken Net Atomic Charges

     Atom                 Charge (a.u.)
  ----------------------------------------
      1 C                     0.050603
      2 C                    -0.311974
      3 C                     0.057232
      4 H                     0.178871
      5 C                    -0.260724
      6 S                    -0.007085
      7 C                    -0.270215
      8 H                     0.101548
      9 H                     0.107820
     10 H                     0.106735
     11 C                    -0.372008
     12 H                     0.141255
     13 H                     0.148145
     14 H                     0.137090
     15 H                     0.192707
  ----------------------------------------
  Sum of atomic charges =     0.000000

                    Cartesian Multipole Moments
 -----------------------------------------------------------------
    Charge (ESU x 10^10)
                -0.0000
    Dipole Moment (Debye)
         X       1.3390      Y      -0.4099      Z       1.2160
       Tot       1.8546
    Quadrupole Moments (Debye-Ang)
        XX     -52.5903     XY       2.7578     YY     -44.4243
        XZ       0.4270     YZ       1.0203     ZZ     -48.5704

 Total job time:  157.83s(wall), 156.18s(cpu)
        *  Thank you very much for using Q-Chem.  Have a nice day.  *
