 Q-Chem 5.4, Q-Chem, Inc., Pleasanton, CA (2021)
 Q-Chem 5.4.0 for Intel X86 EM64T Linux

User input:
--------------------------------------------------------------
$molecule
0 1
C	-0.343091	-0.485419	0.012108
C	0.088709	0.262481	1.111508
C	0.780709	1.460981	0.788808
H	-0.095691	-0.056919	2.148208
C	0.891009	1.652081	-0.600392
S	0.128109	0.330681	-1.474692
C	1.324609	2.402981	1.826708
H	1.111809	2.034381	2.848808
H	0.878909	3.415781	1.738308
H	2.424609	2.523381	1.738308
C	-0.343091	-1.926119	0.012108
H	0.592109	-1.926319	0.552208
H	0.066509	-2.629919	-0.697292
H	-0.816691	-2.445019	0.832308
H	1.365709	2.474081	-1.149492
$end

$rem
JOBTYPE		SP
EXCHANGE	HF
CORRELATION	pRIMP2
BASIS		cc-pvtz
METHOD		rimp2
AUX_BASIS	rimp2-cc-pvtz
SOLVENT_METHOD	PCM
PURECART	11111
SYMMETRY	false
MEM_TOTAL	110000
SCF_CONVERGENCE = 6
THRESH=10
$end

$solvent
dielectric 4.90
$end
--------------------------------------------------------------

             Standard Nuclear Orientation (Angstroms)
    I     Atom           X                Y                Z
 ----------------------------------------------------------------
    1      C      -0.3430910000    -0.4854190000     0.0121080000
    2      C       0.0887090000     0.2624810000     1.1115080000
    3      C       0.7807090000     1.4609810000     0.7888080000
    4      H      -0.0956910000    -0.0569190000     2.1482080000
    5      C       0.8910090000     1.6520810000    -0.6003920000
    6      S       0.1281090000     0.3306810000    -1.4746920000
    7      C       1.3246090000     2.4029810000     1.8267080000
    8      H       1.1118090000     2.0343810000     2.8488080000
    9      H       0.8789090000     3.4157810000     1.7383080000
   10      H       2.4246090000     2.5233810000     1.7383080000
   11      C      -0.3430910000    -1.9261190000     0.0121080000
   12      H       0.5921090000    -1.9263190000     0.5522080000
   13      H       0.0665090000    -2.6299190000    -0.6972920000
   14      H      -0.8166910000    -2.4450190000     0.8323080000
   15      H       1.3657090000     2.4740810000    -1.1494920000
 ----------------------------------------------------------------

   10    -629.4037454380      5.75e-07  Convergence criterion met
 Total energy in the final basis set =     -629.4037454380
        RIMP2         total energy =      -630.5848872914 a.u.

                    Orbital Energies (a.u.)
 --------------------------------------------------------------

 Alpha MOs
 -- Occupied --
-91.9785 -11.2794 -11.2540 -11.2482 -11.2273 -11.2272 -11.2175  -8.9783
 -6.6593  -6.6587  -6.6581  -1.1639  -1.0557  -0.9983  -0.9381  -0.8827
 -0.7435  -0.7219  -0.6463  -0.5893  -0.5764  -0.5720  -0.5552  -0.5441
 -0.5104  -0.4822  -0.4644  -0.4546  -0.3366  -0.2892

          Ground-State Mulliken Net Atomic Charges

     Atom                 Charge (a.u.)
  ----------------------------------------
      1 C                     0.027270
      2 C                    -0.266521
      3 C                     0.038231
      4 H                     0.175379
      5 C                    -0.268277
      6 S                     0.005760
      7 C                    -0.270358
      8 H                     0.101497
      9 H                     0.107498
     10 H                     0.106097
     11 C                    -0.389497
     12 H                     0.150549
     13 H                     0.160510
     14 H                     0.129188
     15 H                     0.192671
  ----------------------------------------
  Sum of atomic charges =     0.000000

                    Cartesian Multipole Moments
 -----------------------------------------------------------------
    Charge (ESU x 10^10)
                -0.0000
    Dipole Moment (Debye)
         X       1.2798      Y      -0.4826      Z       1.7869
       Tot       2.2502
    Quadrupole Moments (Debye-Ang)
        XX     -52.6252     XY       2.5683     YY     -44.5884
        XZ      -0.1423     YZ      -0.3723     ZZ     -48.4413

 Total job time:  161.93s(wall), 159.66s(cpu)
        *  Thank you very much for using Q-Chem.  Have a nice day.  *
