 Q-Chem 5.4, Q-Chem, Inc., Pleasanton, CA (2021)
 Q-Chem 5.4.0 for Intel X86 EM64T Linux

User input:
--------------------------------------------------------------
$molecule
0 1
C	-0.284495	-0.512744	0.010669
C	0.080505	0.269956	1.110069
C	0.665405	1.524156	0.787369
H	-0.075395	-0.064344	2.146769
C	0.758705	1.724156	-0.601831
S	0.113805	0.341356	-1.476131
C	1.125105	2.509956	1.825269
H	0.945205	2.124256	2.847369
H	0.592805	3.480156	1.736869
H	2.210405	2.725856	1.736869
C	-0.284495	-1.953444	0.010669
H	-0.653995	-1.953644	1.025469
H	0.485305	-2.657244	0.290869
H	-1.174495	-2.472344	-0.313231
H	1.159805	2.584456	-1.150931
$end

$rem
JOBTYPE		SP
EXCHANGE	HF
CORRELATION	pRIMP2
BASIS		cc-pvtz
METHOD		rimp2
AUX_BASIS	rimp2-cc-pvtz
SOLVENT_METHOD	PCM
PURECART	11111
SYMMETRY	false
MEM_TOTAL	110000
SCF_CONVERGENCE = 6
THRESH=10
$end

$solvent
dielectric 4.90
$end
--------------------------------------------------------------

             Standard Nuclear Orientation (Angstroms)
    I     Atom           X                Y                Z
 ----------------------------------------------------------------
    1      C      -0.2844950000    -0.5127440000     0.0106690000
    2      C       0.0805050000     0.2699560000     1.1100690000
    3      C       0.6654050000     1.5241560000     0.7873690000
    4      H      -0.0753950000    -0.0643440000     2.1467690000
    5      C       0.7587050000     1.7241560000    -0.6018310000
    6      S       0.1138050000     0.3413560000    -1.4761310000
    7      C       1.1251050000     2.5099560000     1.8252690000
    8      H       0.9452050000     2.1242560000     2.8473690000
    9      H       0.5928050000     3.4801560000     1.7368690000
   10      H       2.2104050000     2.7258560000     1.7368690000
   11      C      -0.2844950000    -1.9534440000     0.0106690000
   12      H      -0.6539950000    -1.9536440000     1.0254690000
   13      H       0.4853050000    -2.6572440000     0.2908690000
   14      H      -1.1744950000    -2.4723440000    -0.3132310000
   15      H       1.1598050000     2.5844560000    -1.1509310000
 ----------------------------------------------------------------

   10    -629.4120422904      5.09e-07  Convergence criterion met
 Total energy in the final basis set =     -629.4120422904
        RIMP2         total energy =      -630.5928868859 a.u.

                    Orbital Energies (a.u.)
 --------------------------------------------------------------

 Alpha MOs
 -- Occupied --
-91.9740 -11.2714 -11.2617 -11.2475 -11.2374 -11.2277 -11.2143  -8.9743
 -6.6552  -6.6546  -6.6541  -1.1625  -1.0536  -0.9993  -0.9392  -0.8844
 -0.7431  -0.7252  -0.6481  -0.5882  -0.5789  -0.5673  -0.5581  -0.5421
 -0.5132  -0.4826  -0.4656  -0.4352  -0.3378  -0.3031

          Ground-State Mulliken Net Atomic Charges

     Atom                 Charge (a.u.)
  ----------------------------------------
      1 C                     0.020876
      2 C                    -0.259633
      3 C                     0.035409
      4 H                     0.178407
      5 C                    -0.243703
      6 S                    -0.004387
      7 C                    -0.271073
      8 H                     0.101353
      9 H                     0.106842
     10 H                     0.106926
     11 C                    -0.357539
     12 H                     0.116064
     13 H                     0.148623
     14 H                     0.128197
     15 H                     0.193638
  ----------------------------------------
  Sum of atomic charges =     0.000000

                    Cartesian Multipole Moments
 -----------------------------------------------------------------
    Charge (ESU x 10^10)
                -0.0000
    Dipole Moment (Debye)
         X       0.5040      Y       0.0723      Z       2.1528
       Tot       2.2122
    Quadrupole Moments (Debye-Ang)
        XX     -52.1807     XY       3.8072     YY     -43.9883
        XZ       0.1028     YZ      -1.0854     ZZ     -48.8006

 Total job time:  157.56s(wall), 155.44s(cpu)
        *  Thank you very much for using Q-Chem.  Have a nice day.  *
