 Q-Chem 5.4, Q-Chem, Inc., Pleasanton, CA (2021)
 Q-Chem 5.4.0 for Intel X86 EM64T Linux

User input:
--------------------------------------------------------------
$molecule
0 1
C	-0.585542	-0.237129	0.010543
C	0.162358	0.194671	1.109943
C	1.360858	0.886571	0.787243
H	-0.157042	0.010271	2.146643
C	1.551958	0.996871	-0.601957
S	0.230658	0.234071	-1.476257
C	2.302958	1.430471	1.825143
H	1.934258	1.217571	2.847243
H	2.423358	2.530371	1.736743
H	3.315758	0.984671	1.736743
C	-0.585542	-1.677829	0.010543
H	-1.125642	-1.677529	0.945743
H	-1.294942	-2.381629	-0.399057
H	0.234658	-2.196729	0.484143
H	2.374058	1.471471	-1.151057
$end

$rem
JOBTYPE		SP
EXCHANGE	HF
CORRELATION	pRIMP2
BASIS		cc-pvtz
METHOD		rimp2
AUX_BASIS	rimp2-cc-pvtz
SOLVENT_METHOD	PCM
PURECART	11111
SYMMETRY	false
MEM_TOTAL	110000
SCF_CONVERGENCE = 6
THRESH=10
$end

$solvent
dielectric 4.90
$end
--------------------------------------------------------------

             Standard Nuclear Orientation (Angstroms)
    I     Atom           X                Y                Z
 ----------------------------------------------------------------
    1      C      -0.5855420000    -0.2371290000     0.0105430000
    2      C       0.1623580000     0.1946710000     1.1099430000
    3      C       1.3608580000     0.8865710000     0.7872430000
    4      H      -0.1570420000     0.0102710000     2.1466430000
    5      C       1.5519580000     0.9968710000    -0.6019570000
    6      S       0.2306580000     0.2340710000    -1.4762570000
    7      C       2.3029580000     1.4304710000     1.8251430000
    8      H       1.9342580000     1.2175710000     2.8472430000
    9      H       2.4233580000     2.5303710000     1.7367430000
   10      H       3.3157580000     0.9846710000     1.7367430000
   11      C      -0.5855420000    -1.6778290000     0.0105430000
   12      H      -1.1256420000    -1.6775290000     0.9457430000
   13      H      -1.2949420000    -2.3816290000    -0.3990570000
   14      H       0.2346580000    -2.1967290000     0.4841430000
   15      H       2.3740580000     1.4714710000    -1.1510570000
 ----------------------------------------------------------------

   11    -629.3526192038      4.42e-07  Convergence criterion met
 Total energy in the final basis set =     -629.3526192038
        RIMP2         total energy =      -630.5439020869 a.u.

                    Orbital Energies (a.u.)
 --------------------------------------------------------------

 Alpha MOs
 -- Occupied --
-91.9715 -11.2833 -11.2545 -11.2503 -11.2444 -11.2297 -11.2086  -8.9727
 -6.6534  -6.6525  -6.6523  -1.1742  -1.0564  -1.0014  -0.9344  -0.8838
 -0.7481  -0.7335  -0.6433  -0.5921  -0.5851  -0.5660  -0.5541  -0.5436
 -0.5188  -0.4802  -0.4609  -0.4151  -0.3356  -0.3024

          Ground-State Mulliken Net Atomic Charges

     Atom                 Charge (a.u.)
  ----------------------------------------
      1 C                    -0.094474
      2 C                    -0.132845
      3 C                    -0.018616
      4 H                     0.184941
      5 C                    -0.181633
      6 S                     0.012839
      7 C                    -0.266808
      8 H                     0.102159
      9 H                     0.107016
     10 H                     0.105213
     11 C                    -0.371559
     12 H                     0.101675
     13 H                     0.131791
     14 H                     0.122963
     15 H                     0.197338
  ----------------------------------------
  Sum of atomic charges =     0.000000

                    Cartesian Multipole Moments
 -----------------------------------------------------------------
    Charge (ESU x 10^10)
                -0.0000
    Dipole Moment (Debye)
         X       2.2057      Y       0.2062      Z       2.2267
       Tot       3.1410
    Quadrupole Moments (Debye-Ang)
        XX     -47.4869     XY       5.0589     YY     -50.0490
        XZ      -0.1994     YZ      -0.6694     ZZ     -48.0447

 Total job time:  176.39s(wall), 175.00s(cpu)
        *  Thank you very much for using Q-Chem.  Have a nice day.  *
