 Q-Chem 5.4, Q-Chem, Inc., Pleasanton, CA (2021)
 Q-Chem 5.4.0 for Intel X86 EM64T Linux

User input:
--------------------------------------------------------------
$molecule
0 1
C	-0.431362	-0.417594	0.016441
C	0.123738	0.243906	1.115841
C	1.013338	1.304106	0.793141
H	-0.113262	-0.038594	2.152541
C	1.155238	1.473106	-0.596059
S	0.174438	0.304306	-1.470359
C	1.712538	2.137306	1.831041
H	1.438938	1.811306	2.853141
H	1.449538	3.212106	1.742641
H	2.816738	2.064906	1.742641
C	-0.431362	-1.858294	0.016441
H	-1.494962	-1.858494	-0.171259
H	-0.573662	-2.562094	0.823141
H	-0.266862	-2.377194	-0.916259
H	1.765338	2.200206	-1.145159
$end

$rem
JOBTYPE		SP
EXCHANGE	HF
CORRELATION	pRIMP2
BASIS		cc-pvtz
METHOD		rimp2
AUX_BASIS	rimp2-cc-pvtz
SOLVENT_METHOD	PCM
PURECART	11111
SYMMETRY	false
MEM_TOTAL	110000
SCF_CONVERGENCE = 6
THRESH=10
$end

$solvent
dielectric 4.90
$end
--------------------------------------------------------------

             Standard Nuclear Orientation (Angstroms)
    I     Atom           X                Y                Z
 ----------------------------------------------------------------
    1      C      -0.4313620000    -0.4175940000     0.0164410000
    2      C       0.1237380000     0.2439060000     1.1158410000
    3      C       1.0133380000     1.3041060000     0.7931410000
    4      H      -0.1132620000    -0.0385940000     2.1525410000
    5      C       1.1552380000     1.4731060000    -0.5960590000
    6      S       0.1744380000     0.3043060000    -1.4703590000
    7      C       1.7125380000     2.1373060000     1.8310410000
    8      H       1.4389380000     1.8113060000     2.8531410000
    9      H       1.4495380000     3.2121060000     1.7426410000
   10      H       2.8167380000     2.0649060000     1.7426410000
   11      C      -0.4313620000    -1.8582940000     0.0164410000
   12      H      -1.4949620000    -1.8584940000    -0.1712590000
   13      H      -0.5736620000    -2.5620940000     0.8231410000
   14      H      -0.2668620000    -2.3771940000    -0.9162590000
   15      H       1.7653380000     2.2002060000    -1.1451590000
 ----------------------------------------------------------------

   10    -629.3815355126      6.04e-07  Convergence criterion met
 Total energy in the final basis set =     -629.3815355126
        RIMP2         total energy =      -630.5667126520 a.u.

                    Orbital Energies (a.u.)
 --------------------------------------------------------------

 Alpha MOs
 -- Occupied --
-91.9760 -11.2669 -11.2616 -11.2473 -11.2335 -11.2270 -11.2116  -8.9763
 -6.6572  -6.6566  -6.6560  -1.1637  -1.0542  -0.9956  -0.9422  -0.8818
 -0.7464  -0.7221  -0.6447  -0.5855  -0.5738  -0.5681  -0.5533  -0.5443
 -0.5131  -0.4914  -0.4576  -0.4440  -0.3369  -0.2857

          Ground-State Mulliken Net Atomic Charges

     Atom                 Charge (a.u.)
  ----------------------------------------
      1 C                    -0.016875
      2 C                    -0.236062
      3 C                     0.036586
      4 H                     0.180189
      5 C                    -0.246694
      6 S                     0.003925
      7 C                    -0.270429
      8 H                     0.101364
      9 H                     0.107062
     10 H                     0.105529
     11 C                    -0.382624
     12 H                     0.128346
     13 H                     0.155737
     14 H                     0.139416
     15 H                     0.194530
  ----------------------------------------
  Sum of atomic charges =     0.000000

                    Cartesian Multipole Moments
 -----------------------------------------------------------------
    Charge (ESU x 10^10)
                -0.0000
    Dipole Moment (Debye)
         X       0.4863      Y      -0.2049      Z       1.4328
       Tot       1.5269
    Quadrupole Moments (Debye-Ang)
        XX     -50.5815     XY       5.7350     YY     -46.2824
        XZ      -0.1139     YZ       0.1855     ZZ     -48.1467

 Total job time:  156.68s(wall), 154.64s(cpu)
        *  Thank you very much for using Q-Chem.  Have a nice day.  *
