 Q-Chem 5.4, Q-Chem, Inc., Pleasanton, CA (2021)
 Q-Chem 5.4.0 for Intel X86 EM64T Linux

User input:
--------------------------------------------------------------
$molecule
0 1
C	-0.523729	-0.333974	0.012353
C	0.137871	0.221126	1.111753
C	1.197971	1.110626	0.789053
H	-0.144629	-0.015974	2.148453
C	1.367071	1.252426	-0.600147
S	0.198171	0.271726	-1.474447
C	2.031271	1.809826	1.826953
H	1.705171	1.536226	2.849053
H	1.958871	2.914026	1.738553
H	3.106071	1.546726	1.738553
C	-0.523729	-1.774674	0.012353
H	0.303571	-1.774374	0.706653
H	-1.050329	-2.478474	0.639853
H	0.085071	-2.293574	-0.713247
H	2.094171	1.862626	-1.149247
$end

$rem
JOBTYPE		SP
EXCHANGE	HF
CORRELATION	pRIMP2
BASIS		cc-pvtz
METHOD		rimp2
AUX_BASIS	rimp2-cc-pvtz
SOLVENT_METHOD	PCM
PURECART	11111
SYMMETRY	false
MEM_TOTAL	110000
SCF_CONVERGENCE = 6
THRESH=10
$end

$solvent
dielectric 4.90
$end
--------------------------------------------------------------

             Standard Nuclear Orientation (Angstroms)
    I     Atom           X                Y                Z
 ----------------------------------------------------------------
    1      C      -0.5237290000    -0.3339740000     0.0123530000
    2      C       0.1378710000     0.2211260000     1.1117530000
    3      C       1.1979710000     1.1106260000     0.7890530000
    4      H      -0.1446290000    -0.0159740000     2.1484530000
    5      C       1.3670710000     1.2524260000    -0.6001470000
    6      S       0.1981710000     0.2717260000    -1.4744470000
    7      C       2.0312710000     1.8098260000     1.8269530000
    8      H       1.7051710000     1.5362260000     2.8490530000
    9      H       1.9588710000     2.9140260000     1.7385530000
   10      H       3.1060710000     1.5467260000     1.7385530000
   11      C      -0.5237290000    -1.7746740000     0.0123530000
   12      H       0.3035710000    -1.7743740000     0.7066530000
   13      H      -1.0503290000    -2.4784740000     0.6398530000
   14      H       0.0850710000    -2.2935740000    -0.7132470000
   15      H       2.0941710000     1.8626260000    -1.1492470000
 ----------------------------------------------------------------

   11    -629.3626441635      4.24e-07  Convergence criterion met
 Total energy in the final basis set =     -629.3626441635
        RIMP2         total energy =      -630.5527977212 a.u.

                    Orbital Energies (a.u.)
 --------------------------------------------------------------

 Alpha MOs
 -- Occupied --
-91.9790 -11.2685 -11.2623 -11.2487 -11.2380 -11.2283 -11.2094  -8.9790
 -6.6599  -6.6592  -6.6588  -1.1715  -1.0564  -0.9995  -0.9354  -0.8815
 -0.7467  -0.7283  -0.6449  -0.5913  -0.5777  -0.5687  -0.5549  -0.5448
 -0.5128  -0.4776  -0.4572  -0.4528  -0.3324  -0.2895

          Ground-State Mulliken Net Atomic Charges

     Atom                 Charge (a.u.)
  ----------------------------------------
      1 C                    -0.056449
      2 C                    -0.170037
      3 C                    -0.004005
      4 H                     0.179376
      5 C                    -0.228198
      6 S                     0.020958
      7 C                    -0.268526
      8 H                     0.101751
      9 H                     0.107212
     10 H                     0.104337
     11 C                    -0.380506
     12 H                     0.134828
     13 H                     0.129564
     14 H                     0.133765
     15 H                     0.195930
  ----------------------------------------
  Sum of atomic charges =     0.000000

                    Cartesian Multipole Moments
 -----------------------------------------------------------------
    Charge (ESU x 10^10)
                -0.0000
    Dipole Moment (Debye)
         X       2.1124      Y      -0.0778      Z       1.8929
       Tot       2.8375
    Quadrupole Moments (Debye-Ang)
        XX     -50.0593     XY       3.6866     YY     -48.4818
        XZ      -0.4925     YZ      -0.8071     ZZ     -47.8549

 Total job time:  177.62s(wall), 175.74s(cpu)
        *  Thank you very much for using Q-Chem.  Have a nice day.  *
