 Q-Chem 5.4, Q-Chem, Inc., Pleasanton, CA (2021)
 Q-Chem 5.4.0 for Intel X86 EM64T Linux

User input:
--------------------------------------------------------------
$molecule
0 1
C	-0.433362	-0.417594	0.019119
C	0.121738	0.243906	1.118519
C	1.011338	1.304106	0.795819
H	-0.115262	-0.038594	2.155219
C	1.153238	1.473106	-0.593381
S	0.172438	0.304306	-1.467681
C	1.710538	2.137306	1.833719
H	1.436938	1.811306	2.855819
H	1.447538	3.212106	1.745319
H	2.814738	2.064906	1.745319
C	-0.433362	-1.858294	0.019119
H	-1.127462	-1.858494	-0.808281
H	-1.060962	-2.562094	0.545619
H	0.292138	-2.377194	-0.589681
H	1.763338	2.200206	-1.142481
$end

$rem
JOBTYPE		SP
EXCHANGE	HF
CORRELATION	pRIMP2
BASIS		cc-pvtz
METHOD		rimp2
AUX_BASIS	rimp2-cc-pvtz
SOLVENT_METHOD	PCM
PURECART	11111
SYMMETRY	false
MEM_TOTAL	110000
SCF_CONVERGENCE = 6
THRESH=10
$end

$solvent
dielectric 4.90
$end
--------------------------------------------------------------

             Standard Nuclear Orientation (Angstroms)
    I     Atom           X                Y                Z
 ----------------------------------------------------------------
    1      C      -0.4333620000    -0.4175940000     0.0191190000
    2      C       0.1217380000     0.2439060000     1.1185190000
    3      C       1.0113380000     1.3041060000     0.7958190000
    4      H      -0.1152620000    -0.0385940000     2.1552190000
    5      C       1.1532380000     1.4731060000    -0.5933810000
    6      S       0.1724380000     0.3043060000    -1.4676810000
    7      C       1.7105380000     2.1373060000     1.8337190000
    8      H       1.4369380000     1.8113060000     2.8558190000
    9      H       1.4475380000     3.2121060000     1.7453190000
   10      H       2.8147380000     2.0649060000     1.7453190000
   11      C      -0.4333620000    -1.8582940000     0.0191190000
   12      H      -1.1274620000    -1.8584940000    -0.8082810000
   13      H      -1.0609620000    -2.5620940000     0.5456190000
   14      H       0.2921380000    -2.3771940000    -0.5896810000
   15      H       1.7633380000     2.2002060000    -1.1424810000
 ----------------------------------------------------------------

   10    -629.3870100627      6.10e-07  Convergence criterion met
 Total energy in the final basis set =     -629.3870100627
        RIMP2         total energy =      -630.5713797012 a.u.

                    Orbital Energies (a.u.)
 --------------------------------------------------------------

 Alpha MOs
 -- Occupied --
-91.9784 -11.2669 -11.2625 -11.2476 -11.2360 -11.2273 -11.2115  -8.9785
 -6.6595  -6.6588  -6.6583  -1.1650  -1.0546  -0.9949  -0.9445  -0.8810
 -0.7491  -0.7221  -0.6442  -0.5906  -0.5754  -0.5681  -0.5523  -0.5459
 -0.5137  -0.4786  -0.4590  -0.4449  -0.3372  -0.2967

          Ground-State Mulliken Net Atomic Charges

     Atom                 Charge (a.u.)
  ----------------------------------------
      1 C                    -0.037117
      2 C                    -0.201103
      3 C                     0.021180
      4 H                     0.179890
      5 C                    -0.227774
      6 S                     0.003201
      7 C                    -0.270536
      8 H                     0.101707
      9 H                     0.106904
     10 H                     0.105382
     11 C                    -0.372663
     12 H                     0.113207
     13 H                     0.146846
     14 H                     0.135232
     15 H                     0.195643
  ----------------------------------------
  Sum of atomic charges =     0.000000

                    Cartesian Multipole Moments
 -----------------------------------------------------------------
    Charge (ESU x 10^10)
                -0.0000
    Dipole Moment (Debye)
         X       0.9314      Y       0.1402      Z       1.1378
       Tot       1.4771
    Quadrupole Moments (Debye-Ang)
        XX     -50.3479     XY       5.4179     YY     -46.3255
        XZ      -0.2492     YZ       0.7286     ZZ     -48.3937

 Total job time:  156.60s(wall), 155.03s(cpu)
        *  Thank you very much for using Q-Chem.  Have a nice day.  *
