 Q-Chem 5.4, Q-Chem, Inc., Pleasanton, CA (2021)
 Q-Chem 5.4.0 for Intel X86 EM64T Linux

User input:
--------------------------------------------------------------
$molecule
0 1
C	-0.061073	-0.573727	0.010542
C	0.014227	0.286573	1.109942
C	0.134827	1.665273	0.787242
H	-0.017873	-0.080827	2.146642
C	0.154127	1.885073	-0.601958
S	0.021127	0.365073	-1.476258
C	0.229727	2.748873	1.825142
H	0.192627	2.324773	2.847242
H	-0.602273	3.478373	1.736742
H	1.175727	3.322873	1.736742
C	-0.061073	-2.014427	0.010542
H	0.478827	-2.014627	0.945942
H	0.648427	-2.718227	-0.398958
H	-0.881273	-2.533327	0.484142
H	0.236827	2.830673	-1.151058
$end

$rem
JOBTYPE		SP
EXCHANGE	HF
CORRELATION	pRIMP2
BASIS		cc-pvtz
METHOD		rimp2
AUX_BASIS	rimp2-cc-pvtz
SOLVENT_METHOD	PCM
PURECART	11111
SYMMETRY	false
MEM_TOTAL	110000
SCF_CONVERGENCE = 6
THRESH=10
$end

$solvent
dielectric 4.90
$end
--------------------------------------------------------------

             Standard Nuclear Orientation (Angstroms)
    I     Atom           X                Y                Z
 ----------------------------------------------------------------
    1      C      -0.0610730000    -0.5737270000     0.0105420000
    2      C       0.0142270000     0.2865730000     1.1099420000
    3      C       0.1348270000     1.6652730000     0.7872420000
    4      H      -0.0178730000    -0.0808270000     2.1466420000
    5      C       0.1541270000     1.8850730000    -0.6019580000
    6      S       0.0211270000     0.3650730000    -1.4762580000
    7      C       0.2297270000     2.7488730000     1.8251420000
    8      H       0.1926270000     2.3247730000     2.8472420000
    9      H      -0.6022730000     3.4783730000     1.7367420000
   10      H       1.1757270000     3.3228730000     1.7367420000
   11      C      -0.0610730000    -2.0144270000     0.0105420000
   12      H       0.4788270000    -2.0146270000     0.9459420000
   13      H       0.6484270000    -2.7182270000    -0.3989580000
   14      H      -0.8812730000    -2.5333270000     0.4841420000
   15      H       0.2368270000     2.8306730000    -1.1510580000
 ----------------------------------------------------------------

   10    -629.4232395680      5.34e-07  Convergence criterion met
 Total energy in the final basis set =     -629.4232395680
        RIMP2         total energy =      -630.6010246315 a.u.

                    Orbital Energies (a.u.)
 --------------------------------------------------------------

 Alpha MOs
 -- Occupied --
-91.9761 -11.2802 -11.2542 -11.2472 -11.2310 -11.2272 -11.2173  -8.9760
 -6.6570  -6.6564  -6.6559  -1.1608  -1.0544  -0.9994  -0.9395  -0.8841
 -0.7421  -0.7226  -0.6485  -0.5917  -0.5762  -0.5684  -0.5586  -0.5425
 -0.5100  -0.4853  -0.4675  -0.4431  -0.3371  -0.2991

          Ground-State Mulliken Net Atomic Charges

     Atom                 Charge (a.u.)
  ----------------------------------------
      1 C                     0.065732
      2 C                    -0.270923
      3 C                     0.031402
      4 H                     0.176721
      5 C                    -0.259563
      6 S                    -0.006070
      7 C                    -0.274155
      8 H                     0.101095
      9 H                     0.107290
     10 H                     0.107175
     11 C                    -0.384641
     12 H                     0.129857
     13 H                     0.154356
     14 H                     0.129297
     15 H                     0.192425
  ----------------------------------------
  Sum of atomic charges =     0.000000

                    Cartesian Multipole Moments
 -----------------------------------------------------------------
    Charge (ESU x 10^10)
                -0.0000
    Dipole Moment (Debye)
         X       0.4449      Y      -0.2787      Z       2.0605
       Tot       2.1263
    Quadrupole Moments (Debye-Ang)
        XX     -53.8337     XY      -0.1339     YY     -42.1975
        XZ      -0.2691     YZ      -0.8472     ZZ     -48.8422

 Total job time:  162.60s(wall), 160.15s(cpu)
        *  Thank you very much for using Q-Chem.  Have a nice day.  *
