 Q-Chem 5.4, Q-Chem, Inc., Pleasanton, CA (2021)
 Q-Chem 5.4.0 for Intel X86 EM64T Linux

User input:
--------------------------------------------------------------
$molecule
0 1
C	-0.432693	-0.417594	0.018592
C	0.122407	0.243906	1.117992
C	1.012007	1.304106	0.795292
H	-0.114593	-0.038594	2.154692
C	1.153907	1.473106	-0.593908
S	0.173107	0.304306	-1.468208
C	1.711207	2.137306	1.833192
H	1.437607	1.811306	2.855292
H	1.448207	3.212106	1.744792
H	2.815407	2.064906	1.744792
C	-0.432693	-1.858294	0.018592
H	-1.259993	-1.858494	-0.675708
H	-0.959293	-2.562094	0.646092
H	0.176107	-2.377194	-0.707008
H	1.764007	2.200206	-1.143008
$end

$rem
JOBTYPE		SP
EXCHANGE	HF
CORRELATION	pRIMP2
BASIS		cc-pvtz
METHOD		rimp2
AUX_BASIS	rimp2-cc-pvtz
SOLVENT_METHOD	PCM
PURECART	11111
SYMMETRY	false
MEM_TOTAL	110000
SCF_CONVERGENCE = 6
THRESH=10
$end

$solvent
dielectric 4.90
$end
--------------------------------------------------------------

             Standard Nuclear Orientation (Angstroms)
    I     Atom           X                Y                Z
 ----------------------------------------------------------------
    1      C      -0.4326930000    -0.4175940000     0.0185920000
    2      C       0.1224070000     0.2439060000     1.1179920000
    3      C       1.0120070000     1.3041060000     0.7952920000
    4      H      -0.1145930000    -0.0385940000     2.1546920000
    5      C       1.1539070000     1.4731060000    -0.5939080000
    6      S       0.1731070000     0.3043060000    -1.4682080000
    7      C       1.7112070000     2.1373060000     1.8331920000
    8      H       1.4376070000     1.8113060000     2.8552920000
    9      H       1.4482070000     3.2121060000     1.7447920000
   10      H       2.8154070000     2.0649060000     1.7447920000
   11      C      -0.4326930000    -1.8582940000     0.0185920000
   12      H      -1.2599930000    -1.8584940000    -0.6757080000
   13      H      -0.9592930000    -2.5620940000     0.6460920000
   14      H       0.1761070000    -2.3771940000    -0.7070080000
   15      H       1.7640070000     2.2002060000    -1.1430080000
 ----------------------------------------------------------------

   10    -629.3853013466      5.99e-07  Convergence criterion met
 Total energy in the final basis set =     -629.3853013466
        RIMP2         total energy =      -630.5697853111 a.u.

                    Orbital Energies (a.u.)
 --------------------------------------------------------------

 Alpha MOs
 -- Occupied --
-91.9779 -11.2656 -11.2637 -11.2475 -11.2352 -11.2272 -11.2114  -8.9781
 -6.6590  -6.6584  -6.6579  -1.1646  -1.0544  -0.9950  -0.9440  -0.8812
 -0.7484  -0.7220  -0.6441  -0.5894  -0.5748  -0.5685  -0.5523  -0.5454
 -0.5135  -0.4821  -0.4581  -0.4456  -0.3373  -0.2931

          Ground-State Mulliken Net Atomic Charges

     Atom                 Charge (a.u.)
  ----------------------------------------
      1 C                    -0.037258
      2 C                    -0.204738
      3 C                     0.023821
      4 H                     0.180424
      5 C                    -0.230208
      6 S                     0.001736
      7 C                    -0.270731
      8 H                     0.101548
      9 H                     0.106962
     10 H                     0.105396
     11 C                    -0.378325
     12 H                     0.118891
     13 H                     0.148932
     14 H                     0.138035
     15 H                     0.195514
  ----------------------------------------
  Sum of atomic charges =     0.000000

                    Cartesian Multipole Moments
 -----------------------------------------------------------------
    Charge (ESU x 10^10)
                -0.0000
    Dipole Moment (Debye)
         X       0.8033      Y       0.0511      Z       1.1912
       Tot       1.4377
    Quadrupole Moments (Debye-Ang)
        XX     -50.4101     XY       5.5354     YY     -46.3056
        XZ      -0.2832     YZ       0.6128     ZZ     -48.3226

 Total job time:  157.35s(wall), 154.86s(cpu)
        *  Thank you very much for using Q-Chem.  Have a nice day.  *
