 Q-Chem 5.4, Q-Chem, Inc., Pleasanton, CA (2021)
 Q-Chem 5.4.0 for Intel X86 EM64T Linux

User input:
--------------------------------------------------------------
$molecule
0 1
C	0.003540	-0.576312	0.018379
C	0.003540	0.287288	1.117779
C	0.003640	1.671188	0.795079
H	0.003540	-0.081512	2.154479
C	0.003640	1.891888	-0.594121
S	0.003540	0.366088	-1.468421
C	0.003640	2.758988	1.832979
H	0.003640	2.333288	2.855079
H	-0.888760	3.413288	1.744579
H	0.896040	3.413188	1.744579
C	0.003540	-2.017012	0.018379
H	-0.690560	-2.016712	-0.809021
H	0.631140	-2.720812	-0.508121
H	-0.721960	-2.535912	0.627179
H	0.003640	2.841088	-1.143221
$end

$rem
JOBTYPE		SP
EXCHANGE	HF
CORRELATION	pRIMP2
BASIS		cc-pvtz
METHOD		rimp2
AUX_BASIS	rimp2-cc-pvtz
SOLVENT_METHOD	PCM
PURECART	11111
SYMMETRY	false
MEM_TOTAL	110000
SCF_CONVERGENCE = 6
THRESH=10
$end

$solvent
dielectric 4.90
$end
--------------------------------------------------------------

             Standard Nuclear Orientation (Angstroms)
    I     Atom           X                Y                Z
 ----------------------------------------------------------------
    1      C       0.0035400000    -0.5763120000     0.0183790000
    2      C       0.0035400000     0.2872880000     1.1177790000
    3      C       0.0036400000     1.6711880000     0.7950790000
    4      H       0.0035400000    -0.0815120000     2.1544790000
    5      C       0.0036400000     1.8918880000    -0.5941210000
    6      S       0.0035400000     0.3660880000    -1.4684210000
    7      C       0.0036400000     2.7589880000     1.8329790000
    8      H       0.0036400000     2.3332880000     2.8550790000
    9      H      -0.8887600000     3.4132880000     1.7445790000
   10      H       0.8960400000     3.4131880000     1.7445790000
   11      C       0.0035400000    -2.0170120000     0.0183790000
   12      H      -0.6905600000    -2.0167120000    -0.8090210000
   13      H       0.6311400000    -2.7208120000    -0.5081210000
   14      H      -0.7219600000    -2.5359120000     0.6271790000
   15      H       0.0036400000     2.8410880000    -1.1432210000
 ----------------------------------------------------------------

   10    -629.4227198116      5.99e-07  Convergence criterion met
 Total energy in the final basis set =     -629.4227198116
        RIMP2         total energy =      -630.5993164687 a.u.

                    Orbital Energies (a.u.)
 --------------------------------------------------------------

 Alpha MOs
 -- Occupied --
-91.9786 -11.2793 -11.2547 -11.2469 -11.2276 -11.2267 -11.2182  -8.9786
 -6.6596  -6.6591  -6.6584  -1.1607  -1.0555  -0.9959  -0.9452  -0.8820
 -0.7466  -0.7185  -0.6477  -0.5912  -0.5757  -0.5675  -0.5513  -0.5475
 -0.5085  -0.4886  -0.4650  -0.4503  -0.3390  -0.2971

          Ground-State Mulliken Net Atomic Charges

     Atom                 Charge (a.u.)
  ----------------------------------------
      1 C                     0.053089
      2 C                    -0.273156
      3 C                     0.038117
      4 H                     0.181193
      5 C                    -0.260766
      6 S                    -0.005104
      7 C                    -0.273463
      8 H                     0.101545
      9 H                     0.107023
     10 H                     0.107226
     11 C                    -0.371438
     12 H                     0.120361
     13 H                     0.145578
     14 H                     0.135652
     15 H                     0.194143
  ----------------------------------------
  Sum of atomic charges =     0.000000

                    Cartesian Multipole Moments
 -----------------------------------------------------------------
    Charge (ESU x 10^10)
                -0.0000
    Dipole Moment (Debye)
         X      -0.4461      Y      -0.2491      Z       0.9649
       Tot       1.0918
    Quadrupole Moments (Debye-Ang)
        XX     -54.0029     XY       0.8929     YY     -41.9734
        XZ      -0.3241     YZ       1.3905     ZZ     -48.7371

 Total job time:  159.09s(wall), 156.81s(cpu)
        *  Thank you very much for using Q-Chem.  Have a nice day.  *
