 Q-Chem 5.4, Q-Chem, Inc., Pleasanton, CA (2021)
 Q-Chem 5.4.0 for Intel X86 EM64T Linux

User input:
--------------------------------------------------------------
$molecule
0 1
C	-0.236889	-0.535397	0.014755
C	0.058511	0.276103	1.114155
C	0.531811	1.576503	0.791455
H	-0.067589	-0.070397	2.150855
C	0.607311	1.783903	-0.597745
S	0.085411	0.350203	-1.472045
C	0.903911	2.598703	1.829355
H	0.758311	2.198703	2.851455
H	0.289111	3.518703	1.740955
H	1.966311	2.908303	1.740955
C	-0.236889	-1.976097	0.014755
H	0.826711	-1.975797	0.202455
H	-0.379189	-2.679897	0.821455
H	-0.072389	-2.494997	-0.917945
H	0.932011	2.675903	-1.146845
$end

$rem
JOBTYPE		SP
EXCHANGE	HF
CORRELATION	pRIMP2
BASIS		cc-pvtz
METHOD		rimp2
AUX_BASIS	rimp2-cc-pvtz
SOLVENT_METHOD	PCM
PURECART	11111
SYMMETRY	false
MEM_TOTAL	110000
SCF_CONVERGENCE = 6
THRESH=10
$end

$solvent
dielectric 4.90
$end
--------------------------------------------------------------

   10    -629.4178117787      6.87e-07  Convergence criterion met
 Total energy in the final basis set =     -629.4178117787
        RIMP2         total energy =      -630.5946609702 a.u.
 Total job time:  158.76s(wall), 157.43s(cpu)
        *  Thank you very much for using Q-Chem.  Have a nice day.  *
 Q-Chem 5.4, Q-Chem, Inc., Pleasanton, CA (2021)
 Q-Chem 5.4.0 for Intel X86 EM64T Linux

User input:
--------------------------------------------------------------
$molecule
0 1
C	-0.236889	-0.535397	0.014755
C	0.058511	0.276103	1.114155
C	0.531811	1.576503	0.791455
H	-0.067589	-0.070397	2.150855
C	0.607311	1.783903	-0.597745
S	0.085411	0.350203	-1.472045
C	0.903911	2.598703	1.829355
H	0.758311	2.198703	2.851455
H	0.289111	3.518703	1.740955
H	1.966311	2.908303	1.740955
C	-0.236889	-1.976097	0.014755
H	0.826711	-1.975797	0.202455
H	-0.379189	-2.679897	0.821455
H	-0.072389	-2.494997	-0.917945
H	0.932011	2.675903	-1.146845
$end

$rem
JOBTYPE		SP
EXCHANGE	HF
CORRELATION	pRIMP2
BASIS		cc-pvtz
METHOD		rimp2
AUX_BASIS	rimp2-cc-pvtz
SOLVENT_METHOD	PCM
PURECART	11111
SYMMETRY	false
MEM_TOTAL	110000
SCF_CONVERGENCE = 6
THRESH=10
$end

$solvent
dielectric 4.90
$end
--------------------------------------------------------------

             Standard Nuclear Orientation (Angstroms)
    I     Atom           X                Y                Z
 ----------------------------------------------------------------
    1      C      -0.2368890000    -0.5353970000     0.0147550000
    2      C       0.0585110000     0.2761030000     1.1141550000
    3      C       0.5318110000     1.5765030000     0.7914550000
    4      H      -0.0675890000    -0.0703970000     2.1508550000
    5      C       0.6073110000     1.7839030000    -0.5977450000
    6      S       0.0854110000     0.3502030000    -1.4720450000
    7      C       0.9039110000     2.5987030000     1.8293550000
    8      H       0.7583110000     2.1987030000     2.8514550000
    9      H       0.2891110000     3.5187030000     1.7409550000
   10      H       1.9663110000     2.9083030000     1.7409550000
   11      C      -0.2368890000    -1.9760970000     0.0147550000
   12      H       0.8267110000    -1.9757970000     0.2024550000
   13      H      -0.3791890000    -2.6798970000     0.8214550000
   14      H      -0.0723890000    -2.4949970000    -0.9179450000
   15      H       0.9320110000     2.6759030000    -1.1468450000
 ----------------------------------------------------------------

   10    -629.4178117787      6.87e-07  Convergence criterion met
 Total energy in the final basis set =     -629.4178117787
        RIMP2         total energy =      -630.5946609702 a.u.

                    Orbital Energies (a.u.)
 --------------------------------------------------------------

 Alpha MOs
 -- Occupied --
-91.9793 -11.2844 -11.2500 -11.2475 -11.2266 -11.2225 -11.2219  -8.9790
 -6.6600  -6.6595  -6.6589  -1.1621  -1.0565  -0.9972  -0.9410  -0.8822
 -0.7440  -0.7196  -0.6492  -0.5869  -0.5762  -0.5668  -0.5551  -0.5458
 -0.5066  -0.4928  -0.4659  -0.4577  -0.3383  -0.2879

          Ground-State Mulliken Net Atomic Charges

     Atom                 Charge (a.u.)
  ----------------------------------------
      1 C                     0.053976
      2 C                    -0.306148
      3 C                     0.055001
      4 H                     0.173792
      5 C                    -0.282581
      6 S                     0.005537
      7 C                    -0.272096
      8 H                     0.101501
      9 H                     0.107504
     10 H                     0.106767
     11 C                    -0.381119
     12 H                     0.151256
     13 H                     0.158911
     14 H                     0.134769
     15 H                     0.192928
  ----------------------------------------
  Sum of atomic charges =     0.000000

                    Cartesian Multipole Moments
 -----------------------------------------------------------------
    Charge (ESU x 10^10)
                -0.0000
    Dipole Moment (Debye)
         X       1.1064      Y      -0.7105      Z       1.5165
       Tot       2.0072
    Quadrupole Moments (Debye-Ang)
        XX     -53.7571     XY       1.4399     YY     -42.9534
        XZ       0.0579     YZ      -0.1372     ZZ     -48.5239

 Total job time:  156.62s(wall), 155.88s(cpu)
        *  Thank you very much for using Q-Chem.  Have a nice day.  *
