 Q-Chem 5.4, Q-Chem, Inc., Pleasanton, CA (2021)
 Q-Chem 5.4.0 for Intel X86 EM64T Linux

User input:
--------------------------------------------------------------
$molecule
0 1
C	-0.339752	-0.485419	0.019884
C	0.092048	0.262481	1.119284
C	0.784048	1.460981	0.796584
H	-0.092352	-0.056919	2.155984
C	0.894348	1.652081	-0.592616
S	0.131448	0.330681	-1.466916
C	1.327948	2.402981	1.834484
H	1.115148	2.034381	2.856584
H	0.882248	3.415781	1.746084
H	2.427948	2.523381	1.746084
C	-0.339752	-1.926119	0.019884
H	-0.339652	-1.926319	-1.060116
H	-1.158952	-2.629919	0.019784
H	0.607348	-2.445019	0.019884
H	1.369048	2.474081	-1.141716
$end

$rem
JOBTYPE		SP
EXCHANGE	HF
CORRELATION	pRIMP2
BASIS		cc-pvtz
METHOD		rimp2
AUX_BASIS	rimp2-cc-pvtz
SOLVENT_METHOD	PCM
PURECART	11111
SYMMETRY	false
MEM_TOTAL	110000
SCF_CONVERGENCE = 6
THRESH=10
$end

$solvent
dielectric 4.90
$end
--------------------------------------------------------------

   10    -629.4025855033      5.40e-07  Convergence criterion met
 Total energy in the final basis set =     -629.4025855033
        RIMP2         total energy =      -630.5843981476 a.u.
 Total job time:  157.54s(wall), 156.62s(cpu)
        *  Thank you very much for using Q-Chem.  Have a nice day.  *
 Q-Chem 5.4, Q-Chem, Inc., Pleasanton, CA (2021)
 Q-Chem 5.4.0 for Intel X86 EM64T Linux

User input:
--------------------------------------------------------------
$molecule
0 1
C	-0.339752	-0.485419	0.019884
C	0.092048	0.262481	1.119284
C	0.784048	1.460981	0.796584
H	-0.092352	-0.056919	2.155984
C	0.894348	1.652081	-0.592616
S	0.131448	0.330681	-1.466916
C	1.327948	2.402981	1.834484
H	1.115148	2.034381	2.856584
H	0.882248	3.415781	1.746084
H	2.427948	2.523381	1.746084
C	-0.339752	-1.926119	0.019884
H	-0.339652	-1.926319	-1.060116
H	-1.158952	-2.629919	0.019784
H	0.607348	-2.445019	0.019884
H	1.369048	2.474081	-1.141716
$end

$rem
JOBTYPE		SP
EXCHANGE	HF
CORRELATION	pRIMP2
BASIS		cc-pvtz
METHOD		rimp2
AUX_BASIS	rimp2-cc-pvtz
SOLVENT_METHOD	PCM
PURECART	11111
SYMMETRY	false
MEM_TOTAL	110000
SCF_CONVERGENCE = 6
THRESH=10
$end

$solvent
dielectric 4.90
$end
--------------------------------------------------------------

             Standard Nuclear Orientation (Angstroms)
    I     Atom           X                Y                Z
 ----------------------------------------------------------------
    1      C      -0.3397520000    -0.4854190000     0.0198840000
    2      C       0.0920480000     0.2624810000     1.1192840000
    3      C       0.7840480000     1.4609810000     0.7965840000
    4      H      -0.0923520000    -0.0569190000     2.1559840000
    5      C       0.8943480000     1.6520810000    -0.5926160000
    6      S       0.1314480000     0.3306810000    -1.4669160000
    7      C       1.3279480000     2.4029810000     1.8344840000
    8      H       1.1151480000     2.0343810000     2.8565840000
    9      H       0.8822480000     3.4157810000     1.7460840000
   10      H       2.4279480000     2.5233810000     1.7460840000
   11      C      -0.3397520000    -1.9261190000     0.0198840000
   12      H      -0.3396520000    -1.9263190000    -1.0601160000
   13      H      -1.1589520000    -2.6299190000     0.0197840000
   14      H       0.6073480000    -2.4450190000     0.0198840000
   15      H       1.3690480000     2.4740810000    -1.1417160000
 ----------------------------------------------------------------

   10    -629.4025855033      5.40e-07  Convergence criterion met
 Total energy in the final basis set =     -629.4025855033
        RIMP2         total energy =      -630.5843981476 a.u.

                    Orbital Energies (a.u.)
 --------------------------------------------------------------

 Alpha MOs
 -- Occupied --
-91.9790 -11.2675 -11.2634 -11.2472 -11.2339 -11.2272 -11.2133  -8.9792
 -6.6601  -6.6594  -6.6589  -1.1637  -1.0553  -0.9946  -0.9456  -0.8806
 -0.7495  -0.7204  -0.6461  -0.5915  -0.5763  -0.5660  -0.5526  -0.5475
 -0.5116  -0.4782  -0.4647  -0.4419  -0.3368  -0.3043

          Ground-State Mulliken Net Atomic Charges

     Atom                 Charge (a.u.)
  ----------------------------------------
      1 C                     0.013182
      2 C                    -0.248510
      3 C                     0.042654
      4 H                     0.178208
      5 C                    -0.247359
      6 S                    -0.001426
      7 C                    -0.271248
      8 H                     0.102025
      9 H                     0.106897
     10 H                     0.105941
     11 C                    -0.361116
     12 H                     0.113088
     13 H                     0.141606
     14 H                     0.130292
     15 H                     0.195767
  ----------------------------------------
  Sum of atomic charges =     0.000000

                    Cartesian Multipole Moments
 -----------------------------------------------------------------
    Charge (ESU x 10^10)
                -0.0000
    Dipole Moment (Debye)
         X       0.9402      Y       0.1624      Z       0.9318
       Tot       1.3337
    Quadrupole Moments (Debye-Ang)
        XX     -51.7021     XY       3.9868     YY     -44.7929
        XZ       0.2136     YZ       1.3062     ZZ     -48.6372

 Total job time:  157.05s(wall), 154.96s(cpu)
        *  Thank you very much for using Q-Chem.  Have a nice day.  *
