 Q-Chem 5.4, Q-Chem, Inc., Pleasanton, CA (2021)
 Q-Chem 5.4.0 for Intel X86 EM64T Linux

User input:
--------------------------------------------------------------
$molecule
0 1
C	-0.057736	-0.573727	0.010353
C	0.017564	0.286573	1.109753
C	0.138164	1.665273	0.787053
H	-0.014536	-0.080827	2.146453
C	0.157464	1.885073	-0.602147
S	0.024464	0.365073	-1.476447
C	0.233064	2.748873	1.824953
H	0.195964	2.324773	2.847053
H	-0.598936	3.478373	1.736553
H	1.179064	3.322873	1.736553
C	-0.057736	-2.014427	0.010353
H	-0.245436	-2.014627	1.073953
H	0.748964	-2.718227	0.152653
H	-0.990436	-2.533327	-0.154147
H	0.240164	2.830673	-1.151247
$end

$rem
JOBTYPE		SP
EXCHANGE	HF
CORRELATION	pRIMP2
BASIS		cc-pvtz
METHOD		rimp2
AUX_BASIS	rimp2-cc-pvtz
SOLVENT_METHOD	PCM
PURECART	11111
SYMMETRY	false
MEM_TOTAL	110000
SCF_CONVERGENCE = 6
THRESH=10
$end

$solvent
dielectric 4.90
$end
--------------------------------------------------------------

             Standard Nuclear Orientation (Angstroms)
    I     Atom           X                Y                Z
 ----------------------------------------------------------------
    1      C      -0.0577360000    -0.5737270000     0.0103530000
    2      C       0.0175640000     0.2865730000     1.1097530000
    3      C       0.1381640000     1.6652730000     0.7870530000
    4      H      -0.0145360000    -0.0808270000     2.1464530000
    5      C       0.1574640000     1.8850730000    -0.6021470000
    6      S       0.0244640000     0.3650730000    -1.4764470000
    7      C       0.2330640000     2.7488730000     1.8249530000
    8      H       0.1959640000     2.3247730000     2.8470530000
    9      H      -0.5989360000     3.4783730000     1.7365530000
   10      H       1.1790640000     3.3228730000     1.7365530000
   11      C      -0.0577360000    -2.0144270000     0.0103530000
   12      H      -0.2454360000    -2.0146270000     1.0739530000
   13      H       0.7489640000    -2.7182270000     0.1526530000
   14      H      -0.9904360000    -2.5333270000    -0.1541470000
   15      H       0.2401640000     2.8306730000    -1.1512470000
 ----------------------------------------------------------------

   10    -629.4245189845      4.94e-07  Convergence criterion met
 Total energy in the final basis set =     -629.4245189845
        RIMP2         total energy =      -630.6024700373 a.u.

                    Orbital Energies (a.u.)
 --------------------------------------------------------------

 Alpha MOs
 -- Occupied --
-91.9749 -11.2773 -11.2575 -11.2470 -11.2344 -11.2274 -11.2163  -8.9751
 -6.6560  -6.6554  -6.6549  -1.1610  -1.0539  -0.9997  -0.9398  -0.8845
 -0.7424  -0.7242  -0.6491  -0.5910  -0.5777  -0.5663  -0.5596  -0.5420
 -0.5105  -0.4852  -0.4677  -0.4376  -0.3380  -0.3040

          Ground-State Mulliken Net Atomic Charges

     Atom                 Charge (a.u.)
  ----------------------------------------
      1 C                     0.064207
      2 C                    -0.269464
      3 C                     0.031223
      4 H                     0.177724
      5 C                    -0.250733
      6 S                    -0.008383
      7 C                    -0.273736
      8 H                     0.101119
      9 H                     0.107120
     10 H                     0.107332
     11 C                    -0.370501
     12 H                     0.119431
     13 H                     0.140708
     14 H                     0.130573
     15 H                     0.193380
  ----------------------------------------
  Sum of atomic charges =     0.000000

                    Cartesian Multipole Moments
 -----------------------------------------------------------------
    Charge (ESU x 10^10)
                -0.0000
    Dipole Moment (Debye)
         X       0.0029      Y      -0.0593      Z       2.1398
       Tot       2.1407
    Quadrupole Moments (Debye-Ang)
        XX     -53.6334     XY       0.9377     YY     -42.2296
        XZ       0.0976     YZ      -1.0999     ZZ     -48.9500

 Total job time:  162.20s(wall), 159.51s(cpu)
        *  Thank you very much for using Q-Chem.  Have a nice day.  *
