 Q-Chem 5.4, Q-Chem, Inc., Pleasanton, CA (2021)
 Q-Chem 5.4.0 for Intel X86 EM64T Linux

User input:
--------------------------------------------------------------
$molecule
0 1
C	-0.178922	-0.553189	0.011472
C	0.044578	0.281011	1.110872
C	0.402778	1.617711	0.788172
H	-0.050822	-0.075289	2.147572
C	0.459978	1.830811	-0.601028
S	0.064978	0.357111	-1.475328
C	0.684378	2.668411	1.826072
H	0.574178	2.257311	2.848172
H	-0.008222	3.531411	1.737672
H	1.715678	3.069411	1.737672
C	-0.178922	-1.993889	0.011472
H	0.648378	-1.994089	0.705772
H	0.347678	-2.697689	-0.616028
H	-0.787722	-2.512789	0.737072
H	0.705678	2.747711	-1.150128
$end

$rem
JOBTYPE		SP
EXCHANGE	HF
CORRELATION	pRIMP2
BASIS		cc-pvtz
METHOD		rimp2
AUX_BASIS	rimp2-cc-pvtz
SOLVENT_METHOD	PCM
PURECART	11111
SYMMETRY	false
MEM_TOTAL	110000
SCF_CONVERGENCE = 6
THRESH=10
$end

$solvent
dielectric 4.90
$end
--------------------------------------------------------------

             Standard Nuclear Orientation (Angstroms)
    I     Atom           X                Y                Z
 ----------------------------------------------------------------
    1      C      -0.1789220000    -0.5531890000     0.0114720000
    2      C       0.0445780000     0.2810110000     1.1108720000
    3      C       0.4027780000     1.6177110000     0.7881720000
    4      H      -0.0508220000    -0.0752890000     2.1475720000
    5      C       0.4599780000     1.8308110000    -0.6010280000
    6      S       0.0649780000     0.3571110000    -1.4753280000
    7      C       0.6843780000     2.6684110000     1.8260720000
    8      H       0.5741780000     2.2573110000     2.8481720000
    9      H      -0.0082220000     3.5314110000     1.7376720000
   10      H       1.7156780000     3.0694110000     1.7376720000
   11      C      -0.1789220000    -1.9938890000     0.0114720000
   12      H       0.6483780000    -1.9940890000     0.7057720000
   13      H       0.3476780000    -2.6976890000    -0.6160280000
   14      H      -0.7877220000    -2.5127890000     0.7370720000
   15      H       0.7056780000     2.7477110000    -1.1501280000
 ----------------------------------------------------------------

   10    -629.4183460886      5.98e-07  Convergence criterion met
 Total energy in the final basis set =     -629.4183460886
        RIMP2         total energy =      -630.5963764024 a.u.

                    Orbital Energies (a.u.)
 --------------------------------------------------------------

 Alpha MOs
 -- Occupied --
-91.9779 -11.2825 -11.2513 -11.2475 -11.2270 -11.2268 -11.2186  -8.9776
 -6.6586  -6.6580  -6.6574  -1.1613  -1.0552  -0.9987  -0.9393  -0.8834
 -0.7425  -0.7211  -0.6478  -0.5907  -0.5740  -0.5717  -0.5568  -0.5435
 -0.5096  -0.4844  -0.4673  -0.4509  -0.3368  -0.2926

          Ground-State Mulliken Net Atomic Charges

     Atom                 Charge (a.u.)
  ----------------------------------------
      1 C                     0.055464
      2 C                    -0.278428
      3 C                     0.038352
      4 H                     0.175582
      5 C                    -0.270929
      6 S                    -0.000946
      7 C                    -0.272822
      8 H                     0.101193
      9 H                     0.107317
     10 H                     0.106933
     11 C                    -0.391549
     12 H                     0.143469
     13 H                     0.159362
     14 H                     0.134966
     15 H                     0.192035
  ----------------------------------------
  Sum of atomic charges =     0.000000

                    Cartesian Multipole Moments
 -----------------------------------------------------------------
    Charge (ESU x 10^10)
                -0.0000
    Dipole Moment (Debye)
         X       0.8531      Y      -0.5145      Z       1.8868
       Tot       2.1336
    Quadrupole Moments (Debye-Ang)
        XX     -53.7431     XY       0.9340     YY     -42.7272
        XZ      -0.2361     YZ      -0.5166     ZZ     -48.6488

 Total job time:  156.15s(wall), 155.45s(cpu)
        *  Thank you very much for using Q-Chem.  Have a nice day.  *
