 Q-Chem 5.4, Q-Chem, Inc., Pleasanton, CA (2021)
 Q-Chem 5.4.0 for Intel X86 EM64T Linux

User input:
--------------------------------------------------------------
$molecule
0 1
C	-0.230083	-0.535397	0.010543
C	0.065317	0.276103	1.109943
C	0.538617	1.576503	0.787243
H	-0.060783	-0.070397	2.146643
C	0.614117	1.783903	-0.601957
S	0.092217	0.350203	-1.476257
C	0.910717	2.598703	1.825143
H	0.765117	2.198703	2.847243
H	0.295917	3.518703	1.736743
H	1.973117	2.908303	1.736743
C	-0.230083	-1.976097	0.010543
H	-0.770183	-1.975797	0.945743
H	-0.939483	-2.679897	-0.399057
H	0.590117	-2.494997	0.484143
H	0.938817	2.675903	-1.151057
$end

$rem
JOBTYPE		SP
EXCHANGE	HF
CORRELATION	pRIMP2
BASIS		cc-pvtz
METHOD		rimp2
AUX_BASIS	rimp2-cc-pvtz
SOLVENT_METHOD	PCM
PURECART	11111
SYMMETRY	false
MEM_TOTAL	110000
SCF_CONVERGENCE = 6
THRESH=10
$end

$solvent
dielectric 4.90
$end
--------------------------------------------------------------

   10    -629.4172355251      5.19e-07  Convergence criterion met
 Total energy in the final basis set =     -629.4172355251
        RIMP2         total energy =      -630.5968114819 a.u.
 Total job time:  157.98s(wall), 155.89s(cpu)
        *  Thank you very much for using Q-Chem.  Have a nice day.  *
 Q-Chem 5.4, Q-Chem, Inc., Pleasanton, CA (2021)
 Q-Chem 5.4.0 for Intel X86 EM64T Linux

User input:
--------------------------------------------------------------
$molecule
0 1
C	-0.230083	-0.535397	0.010543
C	0.065317	0.276103	1.109943
C	0.538617	1.576503	0.787243
H	-0.060783	-0.070397	2.146643
C	0.614117	1.783903	-0.601957
S	0.092217	0.350203	-1.476257
C	0.910717	2.598703	1.825143
H	0.765117	2.198703	2.847243
H	0.295917	3.518703	1.736743
H	1.973117	2.908303	1.736743
C	-0.230083	-1.976097	0.010543
H	-0.770183	-1.975797	0.945743
H	-0.939483	-2.679897	-0.399057
H	0.590117	-2.494997	0.484143
H	0.938817	2.675903	-1.151057
$end

$rem
JOBTYPE		SP
EXCHANGE	HF
CORRELATION	pRIMP2
BASIS		cc-pvtz
METHOD		rimp2
AUX_BASIS	rimp2-cc-pvtz
SOLVENT_METHOD	PCM
PURECART	11111
SYMMETRY	false
MEM_TOTAL	110000
SCF_CONVERGENCE = 6
THRESH=10
$end

$solvent
dielectric 4.90
$end
--------------------------------------------------------------

             Standard Nuclear Orientation (Angstroms)
    I     Atom           X                Y                Z
 ----------------------------------------------------------------
    1      C      -0.2300830000    -0.5353970000     0.0105430000
    2      C       0.0653170000     0.2761030000     1.1099430000
    3      C       0.5386170000     1.5765030000     0.7872430000
    4      H      -0.0607830000    -0.0703970000     2.1466430000
    5      C       0.6141170000     1.7839030000    -0.6019570000
    6      S       0.0922170000     0.3502030000    -1.4762570000
    7      C       0.9107170000     2.5987030000     1.8251430000
    8      H       0.7651170000     2.1987030000     2.8472430000
    9      H       0.2959170000     3.5187030000     1.7367430000
   10      H       1.9731170000     2.9083030000     1.7367430000
   11      C      -0.2300830000    -1.9760970000     0.0105430000
   12      H      -0.7701830000    -1.9757970000     0.9457430000
   13      H      -0.9394830000    -2.6798970000    -0.3990570000
   14      H       0.5901170000    -2.4949970000     0.4841430000
   15      H       0.9388170000     2.6759030000    -1.1510570000
 ----------------------------------------------------------------

   10    -629.4172355251      5.19e-07  Convergence criterion met
 Total energy in the final basis set =     -629.4172355251
        RIMP2         total energy =      -630.5968114819 a.u.

                    Orbital Energies (a.u.)
 --------------------------------------------------------------

 Alpha MOs
 -- Occupied --
-91.9744 -11.2763 -11.2575 -11.2475 -11.2341 -11.2275 -11.2163  -8.9746
 -6.6555  -6.6549  -6.6544  -1.1616  -1.0542  -0.9992  -0.9393  -0.8842
 -0.7425  -0.7234  -0.6473  -0.5915  -0.5775  -0.5660  -0.5593  -0.5425
 -0.5111  -0.4872  -0.4652  -0.4386  -0.3377  -0.2997

          Ground-State Mulliken Net Atomic Charges

     Atom                 Charge (a.u.)
  ----------------------------------------
      1 C                     0.044686
      2 C                    -0.278946
      3 C                     0.041586
      4 H                     0.177747
      5 C                    -0.254525
      6 S                    -0.004105
      7 C                    -0.272247
      8 H                     0.101207
      9 H                     0.107038
     10 H                     0.107173
     11 C                    -0.372286
     12 H                     0.122525
     13 H                     0.154516
     14 H                     0.133076
     15 H                     0.192555
  ----------------------------------------
  Sum of atomic charges =     0.000000

                    Cartesian Multipole Moments
 -----------------------------------------------------------------
    Charge (ESU x 10^10)
                -0.0000
    Dipole Moment (Debye)
         X       0.1963      Y      -0.1617      Z       2.0988
       Tot       2.1141
    Quadrupole Moments (Debye-Ang)
        XX     -52.7309     XY       3.7302     YY     -43.2656
        XZ       0.2460     YZ      -0.8576     ZZ     -48.8215

 Total job time:  157.53s(wall), 156.30s(cpu)
        *  Thank you very much for using Q-Chem.  Have a nice day.  *
