 Q-Chem 5.4, Q-Chem, Inc., Pleasanton, CA (2021)
 Q-Chem 5.4.0 for Intel X86 EM64T Linux

User input:
--------------------------------------------------------------
$molecule
0 1
C	-0.431550	-0.417594	0.013104
C	0.123550	0.243906	1.112504
C	1.013150	1.304106	0.789804
H	-0.113450	-0.038594	2.149204
C	1.155050	1.473106	-0.599396
S	0.174250	0.304306	-1.473696
C	1.712350	2.137306	1.827704
H	1.438750	1.811306	2.849804
H	1.449350	3.212106	1.739304
H	2.816550	2.064906	1.739304
C	-0.431550	-1.858294	0.013104
H	-1.366950	-1.858494	0.553004
H	-0.022050	-2.562094	0.722604
H	-0.905150	-2.377194	-0.807096
H	1.765150	2.200206	-1.148496
$end

$rem
JOBTYPE		SP
EXCHANGE	HF
CORRELATION	pRIMP2
BASIS		cc-pvtz
METHOD		rimp2
AUX_BASIS	rimp2-cc-pvtz
SOLVENT_METHOD	PCM
PURECART	11111
SYMMETRY	false
MEM_TOTAL	110000
SCF_CONVERGENCE = 6
THRESH=10
$end

$solvent
dielectric 4.90
$end
--------------------------------------------------------------

             Standard Nuclear Orientation (Angstroms)
    I     Atom           X                Y                Z
 ----------------------------------------------------------------
    1      C      -0.4315500000    -0.4175940000     0.0131040000
    2      C       0.1235500000     0.2439060000     1.1125040000
    3      C       1.0131500000     1.3041060000     0.7898040000
    4      H      -0.1134500000    -0.0385940000     2.1492040000
    5      C       1.1550500000     1.4731060000    -0.5993960000
    6      S       0.1742500000     0.3043060000    -1.4736960000
    7      C       1.7123500000     2.1373060000     1.8277040000
    8      H       1.4387500000     1.8113060000     2.8498040000
    9      H       1.4493500000     3.2121060000     1.7393040000
   10      H       2.8165500000     2.0649060000     1.7393040000
   11      C      -0.4315500000    -1.8582940000     0.0131040000
   12      H      -1.3669500000    -1.8584940000     0.5530040000
   13      H      -0.0220500000    -2.5620940000     0.7226040000
   14      H      -0.9051500000    -2.3771940000    -0.8070960000
   15      H       1.7651500000     2.2002060000    -1.1484960000
 ----------------------------------------------------------------

   10    -629.3864034893      6.25e-07  Convergence criterion met
 Total energy in the final basis set =     -629.3864034893
        RIMP2         total energy =      -630.5719485753 a.u.

                    Orbital Energies (a.u.)
 --------------------------------------------------------------

 Alpha MOs
 -- Occupied --
-91.9736 -11.2651 -11.2639 -11.2481 -11.2379 -11.2276 -11.2119  -8.9741
 -6.6550  -6.6542  -6.6538  -1.1641  -1.0537  -0.9974  -0.9399  -0.8832
 -0.7449  -0.7244  -0.6461  -0.5841  -0.5776  -0.5643  -0.5575  -0.5430
 -0.5148  -0.4906  -0.4597  -0.4362  -0.3370  -0.2906

          Ground-State Mulliken Net Atomic Charges

     Atom                 Charge (a.u.)
  ----------------------------------------
      1 C                    -0.011039
      2 C                    -0.241289
      3 C                     0.029096
      4 H                     0.177690
      5 C                    -0.232212
      6 S                     0.003931
      7 C                    -0.270138
      8 H                     0.101369
      9 H                     0.107012
     10 H                     0.106124
     11 C                    -0.382308
     12 H                     0.128606
     13 H                     0.158623
     14 H                     0.132035
     15 H                     0.192498
  ----------------------------------------
  Sum of atomic charges =     0.000000

                    Cartesian Multipole Moments
 -----------------------------------------------------------------
    Charge (ESU x 10^10)
                -0.0000
    Dipole Moment (Debye)
         X       0.6239      Y      -0.0670      Z       1.9163
       Tot       2.0164
    Quadrupole Moments (Debye-Ang)
        XX     -50.4007     XY       5.5803     YY     -46.3577
        XZ       0.2014     YZ      -0.5785     ZZ     -48.2944

 Total job time:  162.26s(wall), 159.45s(cpu)
        *  Thank you very much for using Q-Chem.  Have a nice day.  *
