 Q-Chem 5.4, Q-Chem, Inc., Pleasanton, CA (2021)
 Q-Chem 5.4.0 for Intel X86 EM64T Linux

User input:
--------------------------------------------------------------
$molecule
0 1
C	-0.113322	-0.566007	0.013104
C	0.036678	0.284493	1.112504
C	0.276978	1.647393	0.789804
H	-0.027422	-0.078707	2.149204
C	0.315378	1.864693	-0.599396
S	0.050378	0.362093	-1.473696
C	0.465878	2.718593	1.827704
H	0.391978	2.299393	2.849804
H	-0.299322	3.517893	1.739304
H	1.458378	3.207893	1.739304
C	-0.113322	-2.006707	0.013104
H	-1.048722	-2.006907	0.553004
H	0.296178	-2.710507	0.722604
H	-0.586922	-2.525607	-0.807096
H	0.480178	2.799393	-1.148496
$end

$rem
JOBTYPE		SP
EXCHANGE	HF
CORRELATION	pRIMP2
BASIS		cc-pvtz
METHOD		rimp2
AUX_BASIS	rimp2-cc-pvtz
SOLVENT_METHOD	PCM
PURECART	11111
SYMMETRY	false
MEM_TOTAL	110000
SCF_CONVERGENCE = 6
THRESH=10
$end

$solvent
dielectric 4.90
$end
--------------------------------------------------------------

   10    -629.4210280145      6.23e-07  Convergence criterion met
 Total energy in the final basis set =     -629.4210280145
        RIMP2         total energy =      -630.5982203990 a.u.
 Total job time:  157.72s(wall), 154.84s(cpu)
        *  Thank you very much for using Q-Chem.  Have a nice day.  *
 Q-Chem 5.4, Q-Chem, Inc., Pleasanton, CA (2021)
 Q-Chem 5.4.0 for Intel X86 EM64T Linux

User input:
--------------------------------------------------------------
$molecule
0 1
C	-0.113322	-0.566007	0.013104
C	0.036678	0.284493	1.112504
C	0.276978	1.647393	0.789804
H	-0.027422	-0.078707	2.149204
C	0.315378	1.864693	-0.599396
S	0.050378	0.362093	-1.473696
C	0.465878	2.718593	1.827704
H	0.391978	2.299393	2.849804
H	-0.299322	3.517893	1.739304
H	1.458378	3.207893	1.739304
C	-0.113322	-2.006707	0.013104
H	-1.048722	-2.006907	0.553004
H	0.296178	-2.710507	0.722604
H	-0.586922	-2.525607	-0.807096
H	0.480178	2.799393	-1.148496
$end

$rem
JOBTYPE		SP
EXCHANGE	HF
CORRELATION	pRIMP2
BASIS		cc-pvtz
METHOD		rimp2
AUX_BASIS	rimp2-cc-pvtz
SOLVENT_METHOD	PCM
PURECART	11111
SYMMETRY	false
MEM_TOTAL	110000
SCF_CONVERGENCE = 6
THRESH=10
$end

$solvent
dielectric 4.90
$end
--------------------------------------------------------------

             Standard Nuclear Orientation (Angstroms)
    I     Atom           X                Y                Z
 ----------------------------------------------------------------
    1      C      -0.1133220000    -0.5660070000     0.0131040000
    2      C       0.0366780000     0.2844930000     1.1125040000
    3      C       0.2769780000     1.6473930000     0.7898040000
    4      H      -0.0274220000    -0.0787070000     2.1492040000
    5      C       0.3153780000     1.8646930000    -0.5993960000
    6      S       0.0503780000     0.3620930000    -1.4736960000
    7      C       0.4658780000     2.7185930000     1.8277040000
    8      H       0.3919780000     2.2993930000     2.8498040000
    9      H      -0.2993220000     3.5178930000     1.7393040000
   10      H       1.4583780000     3.2078930000     1.7393040000
   11      C      -0.1133220000    -2.0067070000     0.0131040000
   12      H      -1.0487220000    -2.0069070000     0.5530040000
   13      H       0.2961780000    -2.7105070000     0.7226040000
   14      H      -0.5869220000    -2.5256070000    -0.8070960000
   15      H       0.4801780000     2.7993930000    -1.1484960000
 ----------------------------------------------------------------

   10    -629.4210280145      6.23e-07  Convergence criterion met
 Total energy in the final basis set =     -629.4210280145
        RIMP2         total energy =      -630.5982203990 a.u.

                    Orbital Energies (a.u.)
 --------------------------------------------------------------

 Alpha MOs
 -- Occupied --
-91.9777 -11.2820 -11.2511 -11.2472 -11.2267 -11.2262 -11.2193  -8.9775
 -6.6585  -6.6579  -6.6573  -1.1601  -1.0551  -0.9980  -0.9412  -0.8834
 -0.7428  -0.7203  -0.6494  -0.5872  -0.5738  -0.5662  -0.5589  -0.5442
 -0.5091  -0.4923  -0.4640  -0.4516  -0.3375  -0.2915

          Ground-State Mulliken Net Atomic Charges

     Atom                 Charge (a.u.)
  ----------------------------------------
      1 C                     0.065625
      2 C                    -0.306659
      3 C                     0.049524
      4 H                     0.175496
      5 C                    -0.271576
      6 S                     0.001480
      7 C                    -0.274857
      8 H                     0.101204
      9 H                     0.107145
     10 H                     0.107296
     11 C                    -0.378765
     12 H                     0.137382
     13 H                     0.157648
     14 H                     0.136945
     15 H                     0.192111
  ----------------------------------------
  Sum of atomic charges =     0.000000

                    Cartesian Multipole Moments
 -----------------------------------------------------------------
    Charge (ESU x 10^10)
                -0.0000
    Dipole Moment (Debye)
         X      -0.4255      Y      -0.5275      Z       1.7749
       Tot       1.8999
    Quadrupole Moments (Debye-Ang)
        XX     -53.8280     XY       2.8406     YY     -42.2447
        XZ       0.2657     YZ      -0.5249     ZZ     -48.6031

 Total job time:  157.19s(wall), 155.45s(cpu)
        *  Thank you very much for using Q-Chem.  Have a nice day.  *
