 Q-Chem 5.4, Q-Chem, Inc., Pleasanton, CA (2021)
 Q-Chem 5.4.0 for Intel X86 EM64T Linux

User input:
--------------------------------------------------------------
$molecule
0 1
C	-0.585271	-0.237129	0.019394
C	0.162629	0.194671	1.118794
C	1.361129	0.886571	0.796094
H	-0.156771	0.010271	2.155494
C	1.552229	0.996871	-0.593106
S	0.230929	0.234071	-1.467406
C	2.303229	1.430471	1.833994
H	1.934529	1.217571	2.856094
H	2.423629	2.530371	1.745594
H	3.316029	0.984671	1.745594
C	-0.585271	-1.677829	0.019394
H	-0.954571	-1.677529	-0.995506
H	0.184529	-2.381629	-0.260706
H	-1.475271	-2.196729	0.343294
H	2.374329	1.471471	-1.142206
$end

$rem
JOBTYPE		SP
EXCHANGE	HF
CORRELATION	pRIMP2
BASIS		cc-pvtz
METHOD		rimp2
AUX_BASIS	rimp2-cc-pvtz
SOLVENT_METHOD	PCM
PURECART	11111
SYMMETRY	false
MEM_TOTAL	110000
SCF_CONVERGENCE = 6
THRESH=10
$end

$solvent
dielectric 4.90
$end
--------------------------------------------------------------

             Standard Nuclear Orientation (Angstroms)
    I     Atom           X                Y                Z
 ----------------------------------------------------------------
    1      C      -0.5852710000    -0.2371290000     0.0193940000
    2      C       0.1626290000     0.1946710000     1.1187940000
    3      C       1.3611290000     0.8865710000     0.7960940000
    4      H      -0.1567710000     0.0102710000     2.1554940000
    5      C       1.5522290000     0.9968710000    -0.5931060000
    6      S       0.2309290000     0.2340710000    -1.4674060000
    7      C       2.3032290000     1.4304710000     1.8339940000
    8      H       1.9345290000     1.2175710000     2.8560940000
    9      H       2.4236290000     2.5303710000     1.7455940000
   10      H       3.3160290000     0.9846710000     1.7455940000
   11      C      -0.5852710000    -1.6778290000     0.0193940000
   12      H      -0.9545710000    -1.6775290000    -0.9955060000
   13      H       0.1845290000    -2.3816290000    -0.2607060000
   14      H      -1.4752710000    -2.1967290000     0.3432940000
   15      H       2.3743290000     1.4714710000    -1.1422060000
 ----------------------------------------------------------------

   11    -629.3453071707      4.52e-07  Convergence criterion met
 Total energy in the final basis set =     -629.3453071707
        RIMP2         total energy =      -630.5352979952 a.u.

                    Orbital Energies (a.u.)
 --------------------------------------------------------------

 Alpha MOs
 -- Occupied --
-91.9757 -11.2858 -11.2541 -11.2482 -11.2376 -11.2287 -11.2070  -8.9767
 -6.6575  -6.6566  -6.6564  -1.1740  -1.0567  -0.9962  -0.9438  -0.8789
 -0.7558  -0.7290  -0.6435  -0.5899  -0.5802  -0.5716  -0.5510  -0.5457
 -0.5203  -0.4690  -0.4434  -0.4389  -0.3311  -0.3062

          Ground-State Mulliken Net Atomic Charges

     Atom                 Charge (a.u.)
  ----------------------------------------
      1 C                    -0.125928
      2 C                    -0.097498
      3 C                    -0.024565
      4 H                     0.185417
      5 C                    -0.175835
      6 S                     0.012048
      7 C                    -0.268539
      8 H                     0.102250
      9 H                     0.106451
     10 H                     0.103524
     11 C                    -0.364918
     12 H                     0.105608
     13 H                     0.130940
     14 H                     0.111805
     15 H                     0.199240
  ----------------------------------------
  Sum of atomic charges =     0.000000

                    Cartesian Multipole Moments
 -----------------------------------------------------------------
    Charge (ESU x 10^10)
                -0.0000
    Dipole Moment (Debye)
         X       2.4195      Y       0.3808      Z       1.2595
       Tot       2.7542
    Quadrupole Moments (Debye-Ang)
        XX     -47.7327     XY       4.5655     YY     -50.1492
        XZ      -0.3718     YZ       0.8561     ZZ     -47.8405

 Total job time:  176.77s(wall), 175.08s(cpu)
        *  Thank you very much for using Q-Chem.  Have a nice day.  *
