 Q-Chem 5.4, Q-Chem, Inc., Pleasanton, CA (2021)
 Q-Chem 5.4.0 for Intel X86 EM64T Linux

User input:
--------------------------------------------------------------
$molecule
0 1
C	-0.432693	-0.417597	0.011474
C	0.122407	0.243903	1.110874
C	1.012007	1.304103	0.788174
H	-0.114593	-0.038597	2.147574
C	1.153907	1.473103	-0.601026
S	0.173107	0.304303	-1.475326
C	1.711207	2.137303	1.826074
H	1.437607	1.811303	2.848174
H	1.448207	3.212103	1.737674
H	2.815407	2.064903	1.737674
C	-0.432693	-1.858297	0.011474
H	-1.260093	-1.857997	0.705574
H	-0.959193	-2.562097	-0.616126
H	0.176107	-2.377197	0.736974
H	1.764007	2.200203	-1.150126
$end

$rem
JOBTYPE		SP
EXCHANGE	HF
CORRELATION	pRIMP2
BASIS		cc-pvtz
METHOD		rimp2
AUX_BASIS	rimp2-cc-pvtz
SOLVENT_METHOD	PCM
PURECART	11111
SYMMETRY	false
MEM_TOTAL	110000
SCF_CONVERGENCE = 6
THRESH=10
$end

$solvent
dielectric 4.90
$end
--------------------------------------------------------------

             Standard Nuclear Orientation (Angstroms)
    I     Atom           X                Y                Z
 ----------------------------------------------------------------
    1      C      -0.4326930000    -0.4175970000     0.0114740000
    2      C       0.1224070000     0.2439030000     1.1108740000
    3      C       1.0120070000     1.3041030000     0.7881740000
    4      H      -0.1145930000    -0.0385970000     2.1475740000
    5      C       1.1539070000     1.4731030000    -0.6010260000
    6      S       0.1731070000     0.3043030000    -1.4753260000
    7      C       1.7112070000     2.1373030000     1.8260740000
    8      H       1.4376070000     1.8113030000     2.8481740000
    9      H       1.4482070000     3.2121030000     1.7376740000
   10      H       2.8154070000     2.0649030000     1.7376740000
   11      C      -0.4326930000    -1.8582970000     0.0114740000
   12      H      -1.2600930000    -1.8579970000     0.7055740000
   13      H      -0.9591930000    -2.5620970000    -0.6161260000
   14      H       0.1761070000    -2.3771970000     0.7369740000
   15      H       1.7640070000     2.2002030000    -1.1501260000
 ----------------------------------------------------------------

   10    -629.3891714710      6.28e-07  Convergence criterion met
 Total energy in the final basis set =     -629.3891714710
        RIMP2         total energy =      -630.5746628865 a.u.

                    Orbital Energies (a.u.)
 --------------------------------------------------------------

 Alpha MOs
 -- Occupied --
-91.9727 -11.2664 -11.2638 -11.2484 -11.2388 -11.2279 -11.2125  -8.9733
 -6.6542  -6.6534  -6.6530  -1.1645  -1.0541  -0.9983  -0.9384  -0.8837
 -0.7442  -0.7249  -0.6442  -0.5883  -0.5793  -0.5656  -0.5570  -0.5430
 -0.5142  -0.4896  -0.4607  -0.4331  -0.3370  -0.2932

          Ground-State Mulliken Net Atomic Charges

     Atom                 Charge (a.u.)
  ----------------------------------------
      1 C                    -0.001445
      2 C                    -0.244167
      3 C                     0.027884
      4 H                     0.178868
      5 C                    -0.233042
      6 S                     0.002415
      7 C                    -0.269980
      8 H                     0.101303
      9 H                     0.107068
     10 H                     0.106335
     11 C                    -0.385009
     12 H                     0.125781
     13 H                     0.150963
     14 H                     0.140619
     15 H                     0.192408
  ----------------------------------------
  Sum of atomic charges =     0.000000

                    Cartesian Multipole Moments
 -----------------------------------------------------------------
    Charge (ESU x 10^10)
                -0.0000
    Dipole Moment (Debye)
         X       0.6972      Y      -0.0880      Z       2.0260
       Tot       2.1444
    Quadrupole Moments (Debye-Ang)
        XX     -50.3134     XY       5.6213     YY     -46.3188
        XZ       0.2570     YZ      -0.5134     ZZ     -48.4278

 Total job time:  158.57s(wall), 156.58s(cpu)
        *  Thank you very much for using Q-Chem.  Have a nice day.  *
