 Q-Chem 5.4, Q-Chem, Inc., Pleasanton, CA (2021)
 Q-Chem 5.4.0 for Intel X86 EM64T Linux

User input:
--------------------------------------------------------------
$molecule
0 1
C	-0.174165	-0.553189	0.010353
C	0.049335	0.281011	1.109753
C	0.407535	1.617711	0.787053
H	-0.046065	-0.075289	2.146453
C	0.464735	1.830811	-0.602147
S	0.069735	0.357111	-1.476447
C	0.689135	2.668411	1.824953
H	0.578935	2.257311	2.847053
H	-0.003465	3.531411	1.736553
H	1.720435	3.069411	1.736553
C	-0.174165	-1.993889	0.010353
H	-0.361865	-1.994089	1.073953
H	0.632535	-2.697689	0.152653
H	-1.106865	-2.512789	-0.154147
H	0.710435	2.747711	-1.151247
$end

$rem
JOBTYPE		SP
EXCHANGE	HF
CORRELATION	pRIMP2
BASIS		cc-pvtz
METHOD		rimp2
AUX_BASIS	rimp2-cc-pvtz
SOLVENT_METHOD	PCM
PURECART	11111
SYMMETRY	false
MEM_TOTAL	110000
SCF_CONVERGENCE = 6
THRESH=10
$end

$solvent
dielectric 4.90
$end
--------------------------------------------------------------

             Standard Nuclear Orientation (Angstroms)
    I     Atom           X                Y                Z
 ----------------------------------------------------------------
    1      C      -0.1741650000    -0.5531890000     0.0103530000
    2      C       0.0493350000     0.2810110000     1.1097530000
    3      C       0.4075350000     1.6177110000     0.7870530000
    4      H      -0.0460650000    -0.0752890000     2.1464530000
    5      C       0.4647350000     1.8308110000    -0.6021470000
    6      S       0.0697350000     0.3571110000    -1.4764470000
    7      C       0.6891350000     2.6684110000     1.8249530000
    8      H       0.5789350000     2.2573110000     2.8470530000
    9      H      -0.0034650000     3.5314110000     1.7365530000
   10      H       1.7204350000     3.0694110000     1.7365530000
   11      C      -0.1741650000    -1.9938890000     0.0103530000
   12      H      -0.3618650000    -1.9940890000     1.0739530000
   13      H       0.6325350000    -2.6976890000     0.1526530000
   14      H      -1.1068650000    -2.5127890000    -0.1541470000
   15      H       0.7104350000     2.7477110000    -1.1512470000
 ----------------------------------------------------------------

   10    -629.4202344339      4.93e-07  Convergence criterion met
 Total energy in the final basis set =     -629.4202344339
        RIMP2         total energy =      -630.5992228469 a.u.

                    Orbital Energies (a.u.)
 --------------------------------------------------------------

 Alpha MOs
 -- Occupied --
-91.9745 -11.2751 -11.2592 -11.2471 -11.2357 -11.2275 -11.2155  -8.9748
 -6.6557  -6.6551  -6.6546  -1.1615  -1.0537  -0.9996  -0.9395  -0.8845
 -0.7426  -0.7247  -0.6487  -0.5900  -0.5783  -0.5671  -0.5588  -0.5419
 -0.5116  -0.4835  -0.4673  -0.4363  -0.3380  -0.3042

          Ground-State Mulliken Net Atomic Charges

     Atom                 Charge (a.u.)
  ----------------------------------------
      1 C                     0.046309
      2 C                    -0.268176
      3 C                     0.035541
      4 H                     0.177787
      5 C                    -0.249158
      6 S                    -0.006794
      7 C                    -0.272562
      8 H                     0.101186
      9 H                     0.106980
     10 H                     0.107254
     11 C                    -0.361388
     12 H                     0.117340
     13 H                     0.142848
     14 H                     0.129400
     15 H                     0.193432
  ----------------------------------------
  Sum of atomic charges =     0.000000

                    Cartesian Multipole Moments
 -----------------------------------------------------------------
    Charge (ESU x 10^10)
                -0.0000
    Dipole Moment (Debye)
         X       0.2880      Y       0.0061      Z       2.1535
       Tot       2.1727
    Quadrupole Moments (Debye-Ang)
        XX     -53.1185     XY       2.3693     YY     -42.8503
        XZ       0.0561     YZ      -1.1100     ZZ     -48.9129

 Total job time:  156.51s(wall), 155.11s(cpu)
        *  Thank you very much for using Q-Chem.  Have a nice day.  *
