 Q-Chem 5.4, Q-Chem, Inc., Pleasanton, CA (2021)
 Q-Chem 5.4.0 for Intel X86 EM64T Linux

User input:
--------------------------------------------------------------
$molecule
0 1
C	-0.235571	-0.535395	0.018379
C	0.059829	0.276105	1.117779
C	0.533129	1.576505	0.795079
H	-0.066271	-0.070395	2.154479
C	0.608629	1.783905	-0.594121
S	0.086729	0.350205	-1.468421
C	0.905229	2.598705	1.832979
H	0.759629	2.198705	2.855079
H	0.290429	3.518705	1.744579
H	1.967629	2.908305	1.744579
C	-0.235571	-1.976095	0.018379
H	0.458729	-1.976295	-0.808921
H	-0.863071	-2.679895	-0.508221
H	0.490029	-2.494995	0.627179
H	0.933329	2.675905	-1.143221
$end

$rem
JOBTYPE		SP
EXCHANGE	HF
CORRELATION	pRIMP2
BASIS		cc-pvtz
METHOD		rimp2
AUX_BASIS	rimp2-cc-pvtz
SOLVENT_METHOD	PCM
PURECART	11111
SYMMETRY	false
MEM_TOTAL	110000
SCF_CONVERGENCE = 6
THRESH=10
$end

$solvent
dielectric 4.90
$end
--------------------------------------------------------------

   10    -629.4151543400      6.20e-07  Convergence criterion met
 Total energy in the final basis set =     -629.4151543400
        RIMP2         total energy =      -630.5932343757 a.u.
 Total job time:  158.98s(wall), 157.34s(cpu)
        *  Thank you very much for using Q-Chem.  Have a nice day.  *
 Q-Chem 5.4, Q-Chem, Inc., Pleasanton, CA (2021)
 Q-Chem 5.4.0 for Intel X86 EM64T Linux

User input:
--------------------------------------------------------------
$molecule
0 1
C	-0.235571	-0.535395	0.018379
C	0.059829	0.276105	1.117779
C	0.533129	1.576505	0.795079
H	-0.066271	-0.070395	2.154479
C	0.608629	1.783905	-0.594121
S	0.086729	0.350205	-1.468421
C	0.905229	2.598705	1.832979
H	0.759629	2.198705	2.855079
H	0.290429	3.518705	1.744579
H	1.967629	2.908305	1.744579
C	-0.235571	-1.976095	0.018379
H	0.458729	-1.976295	-0.808921
H	-0.863071	-2.679895	-0.508221
H	0.490029	-2.494995	0.627179
H	0.933329	2.675905	-1.143221
$end

$rem
JOBTYPE		SP
EXCHANGE	HF
CORRELATION	pRIMP2
BASIS		cc-pvtz
METHOD		rimp2
AUX_BASIS	rimp2-cc-pvtz
SOLVENT_METHOD	PCM
PURECART	11111
SYMMETRY	false
MEM_TOTAL	110000
SCF_CONVERGENCE = 6
THRESH=10
$end

$solvent
dielectric 4.90
$end
--------------------------------------------------------------

             Standard Nuclear Orientation (Angstroms)
    I     Atom           X                Y                Z
 ----------------------------------------------------------------
    1      C      -0.2355710000    -0.5353950000     0.0183790000
    2      C       0.0598290000     0.2761050000     1.1177790000
    3      C       0.5331290000     1.5765050000     0.7950790000
    4      H      -0.0662710000    -0.0703950000     2.1544790000
    5      C       0.6086290000     1.7839050000    -0.5941210000
    6      S       0.0867290000     0.3502050000    -1.4684210000
    7      C       0.9052290000     2.5987050000     1.8329790000
    8      H       0.7596290000     2.1987050000     2.8550790000
    9      H       0.2904290000     3.5187050000     1.7445790000
   10      H       1.9676290000     2.9083050000     1.7445790000
   11      C      -0.2355710000    -1.9760950000     0.0183790000
   12      H       0.4587290000    -1.9762950000    -0.8089210000
   13      H      -0.8630710000    -2.6798950000    -0.5082210000
   14      H       0.4900290000    -2.4949950000     0.6271790000
   15      H       0.9333290000     2.6759050000    -1.1432210000
 ----------------------------------------------------------------

   10    -629.4151543400      6.20e-07  Convergence criterion met
 Total energy in the final basis set =     -629.4151543400
        RIMP2         total energy =      -630.5932343757 a.u.

                    Orbital Energies (a.u.)
 --------------------------------------------------------------

 Alpha MOs
 -- Occupied --
-91.9766 -11.2775 -11.2565 -11.2469 -11.2299 -11.2269 -11.2170  -8.9770
 -6.6579  -6.6573  -6.6567  -1.1624  -1.0559  -0.9953  -0.9446  -0.8812
 -0.7474  -0.7194  -0.6470  -0.5909  -0.5772  -0.5659  -0.5513  -0.5479
 -0.5087  -0.4893  -0.4638  -0.4485  -0.3391  -0.2964

          Ground-State Mulliken Net Atomic Charges

     Atom                 Charge (a.u.)
  ----------------------------------------
      1 C                     0.053411
      2 C                    -0.298970
      3 C                     0.054404
      4 H                     0.179988
      5 C                    -0.260320
      6 S                    -0.004470
      7 C                    -0.271437
      8 H                     0.101573
      9 H                     0.107530
     10 H                     0.106775
     11 C                    -0.374849
     12 H                     0.129027
     13 H                     0.146939
     14 H                     0.136779
     15 H                     0.193618
  ----------------------------------------
  Sum of atomic charges =     0.000000

                    Cartesian Multipole Moments
 -----------------------------------------------------------------
    Charge (ESU x 10^10)
                -0.0000
    Dipole Moment (Debye)
         X       0.9529      Y      -0.2313      Z       1.0027
       Tot       1.4024
    Quadrupole Moments (Debye-Ang)
        XX     -53.2435     XY       1.9838     YY     -43.2486
        XZ       0.4604     YZ       1.3822     ZZ     -48.6664

 Total job time:  156.59s(wall), 155.49s(cpu)
        *  Thank you very much for using Q-Chem.  Have a nice day.  *
