 Q-Chem 5.4, Q-Chem, Inc., Pleasanton, CA (2021)
 Q-Chem 5.4.0 for Intel X86 EM64T Linux

User input:
--------------------------------------------------------------
$molecule
0 1
C	-0.434922	-0.417594	0.019788
C	0.120178	0.243906	1.119188
C	1.009778	1.304106	0.796488
H	-0.116822	-0.038594	2.155888
C	1.151678	1.473106	-0.592712
S	0.170878	0.304306	-1.467012
C	1.708978	2.137306	1.834388
H	1.435378	1.811306	2.856488
H	1.445978	3.212106	1.745988
H	2.813178	2.064906	1.745988
C	-0.434922	-1.858294	0.019788
H	-0.804222	-1.858494	-0.995112
H	-1.204722	-2.562094	0.299888
H	0.455078	-2.377194	-0.304112
H	1.761778	2.200206	-1.141812
$end

$rem
JOBTYPE		SP
EXCHANGE	HF
CORRELATION	pRIMP2
BASIS		cc-pvtz
METHOD		rimp2
AUX_BASIS	rimp2-cc-pvtz
SOLVENT_METHOD	PCM
PURECART	11111
SYMMETRY	false
MEM_TOTAL	110000
SCF_CONVERGENCE = 6
THRESH=10
$end

$solvent
dielectric 4.90
$end
--------------------------------------------------------------

             Standard Nuclear Orientation (Angstroms)
    I     Atom           X                Y                Z
 ----------------------------------------------------------------
    1      C      -0.4349220000    -0.4175940000     0.0197880000
    2      C       0.1201780000     0.2439060000     1.1191880000
    3      C       1.0097780000     1.3041060000     0.7964880000
    4      H      -0.1168220000    -0.0385940000     2.1558880000
    5      C       1.1516780000     1.4731060000    -0.5927120000
    6      S       0.1708780000     0.3043060000    -1.4670120000
    7      C       1.7089780000     2.1373060000     1.8343880000
    8      H       1.4353780000     1.8113060000     2.8564880000
    9      H       1.4459780000     3.2121060000     1.7459880000
   10      H       2.8131780000     2.0649060000     1.7459880000
   11      C      -0.4349220000    -1.8582940000     0.0197880000
   12      H      -0.8042220000    -1.8584940000    -0.9951120000
   13      H      -1.2047220000    -2.5620940000     0.2998880000
   14      H       0.4550780000    -2.3771940000    -0.3041120000
   15      H       1.7617780000     2.2002060000    -1.1418120000
 ----------------------------------------------------------------

   10    -629.3888492983      5.35e-07  Convergence criterion met
 Total energy in the final basis set =     -629.3888492983
        RIMP2         total energy =      -630.5732926342 a.u.

                    Orbital Energies (a.u.)
 --------------------------------------------------------------

 Alpha MOs
 -- Occupied --
-91.9787 -11.2685 -11.2608 -11.2477 -11.2374 -11.2275 -11.2117  -8.9789
 -6.6598  -6.6592  -6.6587  -1.1657  -1.0551  -0.9946  -0.9451  -0.8805
 -0.7503  -0.7222  -0.6446  -0.5917  -0.5764  -0.5672  -0.5522  -0.5468
 -0.5138  -0.4730  -0.4621  -0.4426  -0.3363  -0.3028

          Ground-State Mulliken Net Atomic Charges

     Atom                 Charge (a.u.)
  ----------------------------------------
      1 C                    -0.030259
      2 C                    -0.204900
      3 C                     0.023536
      4 H                     0.178977
      5 C                    -0.229030
      6 S                     0.003941
      7 C                    -0.270311
      8 H                     0.101952
      9 H                     0.106798
     10 H                     0.105320
     11 C                    -0.360615
     12 H                     0.107465
     13 H                     0.141767
     14 H                     0.129092
     15 H                     0.196265
  ----------------------------------------
  Sum of atomic charges =     0.000000

                    Cartesian Multipole Moments
 -----------------------------------------------------------------
    Charge (ESU x 10^10)
                -0.0000
    Dipole Moment (Debye)
         X       1.1660      Y       0.2450      Z       1.0495
       Tot       1.5877
    Quadrupole Moments (Debye-Ang)
        XX     -50.3147     XY       5.0773     YY     -46.3937
        XZ      -0.0600     YZ       0.9607     ZZ     -48.4750

 Total job time:  170.42s(wall), 168.32s(cpu)
        *  Thank you very much for using Q-Chem.  Have a nice day.  *
