 Q-Chem 5.4, Q-Chem, Inc., Pleasanton, CA (2021)
 Q-Chem 5.4.0 for Intel X86 EM64T Linux

User input:
--------------------------------------------------------------
$molecule
0 1
C	-0.229333	-0.535395	0.019119
C	0.066067	0.276105	1.118519
C	0.539367	1.576505	0.795819
H	-0.060033	-0.070395	2.155219
C	0.614867	1.783905	-0.593381
S	0.092967	0.350205	-1.467681
C	0.911467	2.598705	1.833719
H	0.765867	2.198705	2.855819
H	0.296667	3.518705	1.745319
H	1.973867	2.908305	1.745319
C	-0.229333	-1.976095	0.019119
H	-0.923433	-1.976295	-0.808281
H	-0.856933	-2.679895	0.545619
H	0.496167	-2.494995	-0.589681
H	0.939567	2.675905	-1.142481
$end

$rem
JOBTYPE		SP
EXCHANGE	HF
CORRELATION	pRIMP2
BASIS		cc-pvtz
METHOD		rimp2
AUX_BASIS	rimp2-cc-pvtz
SOLVENT_METHOD	PCM
PURECART	11111
SYMMETRY	false
MEM_TOTAL	110000
SCF_CONVERGENCE = 6
THRESH=10
$end

$solvent
dielectric 4.90
$end
--------------------------------------------------------------

   10    -629.4130608645      5.45e-07  Convergence criterion met
 Total energy in the final basis set =     -629.4130608645
        RIMP2         total energy =      -630.5917364475 a.u.
 Total job time:  157.70s(wall), 155.70s(cpu)
        *  Thank you very much for using Q-Chem.  Have a nice day.  *
 Q-Chem 5.4, Q-Chem, Inc., Pleasanton, CA (2021)
 Q-Chem 5.4.0 for Intel X86 EM64T Linux

User input:
--------------------------------------------------------------
$molecule
0 1
C	-0.229333	-0.535395	0.019119
C	0.066067	0.276105	1.118519
C	0.539367	1.576505	0.795819
H	-0.060033	-0.070395	2.155219
C	0.614867	1.783905	-0.593381
S	0.092967	0.350205	-1.467681
C	0.911467	2.598705	1.833719
H	0.765867	2.198705	2.855819
H	0.296667	3.518705	1.745319
H	1.973867	2.908305	1.745319
C	-0.229333	-1.976095	0.019119
H	-0.923433	-1.976295	-0.808281
H	-0.856933	-2.679895	0.545619
H	0.496167	-2.494995	-0.589681
H	0.939567	2.675905	-1.142481
$end

$rem
JOBTYPE		SP
EXCHANGE	HF
CORRELATION	pRIMP2
BASIS		cc-pvtz
METHOD		rimp2
AUX_BASIS	rimp2-cc-pvtz
SOLVENT_METHOD	PCM
PURECART	11111
SYMMETRY	false
MEM_TOTAL	110000
SCF_CONVERGENCE = 6
THRESH=10
$end

$solvent
dielectric 4.90
$end
--------------------------------------------------------------

             Standard Nuclear Orientation (Angstroms)
    I     Atom           X                Y                Z
 ----------------------------------------------------------------
    1      C      -0.2293330000    -0.5353950000     0.0191190000
    2      C       0.0660670000     0.2761050000     1.1185190000
    3      C       0.5393670000     1.5765050000     0.7958190000
    4      H      -0.0600330000    -0.0703950000     2.1552190000
    5      C       0.6148670000     1.7839050000    -0.5933810000
    6      S       0.0929670000     0.3502050000    -1.4676810000
    7      C       0.9114670000     2.5987050000     1.8337190000
    8      H       0.7658670000     2.1987050000     2.8558190000
    9      H       0.2966670000     3.5187050000     1.7453190000
   10      H       1.9738670000     2.9083050000     1.7453190000
   11      C      -0.2293330000    -1.9760950000     0.0191190000
   12      H      -0.9234330000    -1.9762950000    -0.8082810000
   13      H      -0.8569330000    -2.6798950000     0.5456190000
   14      H       0.4961670000    -2.4949950000    -0.5896810000
   15      H       0.9395670000     2.6759050000    -1.1424810000
 ----------------------------------------------------------------

   10    -629.4130608645      5.45e-07  Convergence criterion met
 Total energy in the final basis set =     -629.4130608645
        RIMP2         total energy =      -630.5917364475 a.u.

                    Orbital Energies (a.u.)
 --------------------------------------------------------------

 Alpha MOs
 -- Occupied --
-91.9797 -11.2750 -11.2576 -11.2471 -11.2285 -11.2267 -11.2162  -8.9796
 -6.6605  -6.6600  -6.6594  -1.1614  -1.0550  -0.9954  -0.9453  -0.8817
 -0.7470  -0.7190  -0.6472  -0.5905  -0.5747  -0.5668  -0.5530  -0.5468
 -0.5100  -0.4852  -0.4637  -0.4496  -0.3385  -0.2968

          Ground-State Mulliken Net Atomic Charges

     Atom                 Charge (a.u.)
  ----------------------------------------
      1 C                     0.016485
      2 C                    -0.251556
      3 C                     0.033573
      4 H                     0.179931
      5 C                    -0.250946
      6 S                    -0.003105
      7 C                    -0.272835
      8 H                     0.101646
      9 H                     0.106972
     10 H                     0.106636
     11 C                    -0.369477
     12 H                     0.118262
     13 H                     0.157197
     14 H                     0.132621
     15 H                     0.194597
  ----------------------------------------
  Sum of atomic charges =     0.000000

                    Cartesian Multipole Moments
 -----------------------------------------------------------------
    Charge (ESU x 10^10)
                -0.0000
    Dipole Moment (Debye)
         X       0.1129      Y      -0.1258      Z       0.9907
       Tot       1.0050
    Quadrupole Moments (Debye-Ang)
        XX     -52.8507     XY       3.8946     YY     -43.1632
        XZ      -0.1969     YZ       1.0467     ZZ     -48.6773

 Total job time:  157.92s(wall), 156.21s(cpu)
        *  Thank you very much for using Q-Chem.  Have a nice day.  *
