 Q-Chem 5.4, Q-Chem, Inc., Pleasanton, CA (2021)
 Q-Chem 5.4.0 for Intel X86 EM64T Linux

User input:
--------------------------------------------------------------
$molecule
0 1
C	-0.114888	-0.566007	0.011118
C	0.035112	0.284493	1.110518
C	0.275412	1.647393	0.787818
H	-0.028988	-0.078707	2.147218
C	0.313812	1.864693	-0.601382
S	0.048812	0.362093	-1.475682
C	0.464312	2.718593	1.825718
H	0.390412	2.299393	2.847818
H	-0.300888	3.517893	1.737318
H	1.456812	3.207893	1.737318
C	-0.114888	-2.006707	0.011118
H	-0.654988	-2.006907	0.946318
H	0.594512	-2.710507	0.420718
H	-0.935088	-2.525607	-0.462482
H	0.478612	2.799393	-1.150482
$end

$rem
JOBTYPE		SP
EXCHANGE	HF
CORRELATION	pRIMP2
BASIS		cc-pvtz
METHOD		rimp2
AUX_BASIS	rimp2-cc-pvtz
SOLVENT_METHOD	PCM
PURECART	11111
SYMMETRY	false
MEM_TOTAL	110000
SCF_CONVERGENCE = 6
THRESH=10
$end

$solvent
dielectric 4.90
$end
--------------------------------------------------------------

   10    -629.4224649285      5.21e-07  Convergence criterion met
 Total energy in the final basis set =     -629.4224649285
        RIMP2         total energy =      -630.6006283325 a.u.
 Total job time:  157.81s(wall), 154.95s(cpu)
        *  Thank you very much for using Q-Chem.  Have a nice day.  *
 Q-Chem 5.4, Q-Chem, Inc., Pleasanton, CA (2021)
 Q-Chem 5.4.0 for Intel X86 EM64T Linux

User input:
--------------------------------------------------------------
$molecule
0 1
C	-0.114888	-0.566007	0.011118
C	0.035112	0.284493	1.110518
C	0.275412	1.647393	0.787818
H	-0.028988	-0.078707	2.147218
C	0.313812	1.864693	-0.601382
S	0.048812	0.362093	-1.475682
C	0.464312	2.718593	1.825718
H	0.390412	2.299393	2.847818
H	-0.300888	3.517893	1.737318
H	1.456812	3.207893	1.737318
C	-0.114888	-2.006707	0.011118
H	-0.654988	-2.006907	0.946318
H	0.594512	-2.710507	0.420718
H	-0.935088	-2.525607	-0.462482
H	0.478612	2.799393	-1.150482
$end

$rem
JOBTYPE		SP
EXCHANGE	HF
CORRELATION	pRIMP2
BASIS		cc-pvtz
METHOD		rimp2
AUX_BASIS	rimp2-cc-pvtz
SOLVENT_METHOD	PCM
PURECART	11111
SYMMETRY	false
MEM_TOTAL	110000
SCF_CONVERGENCE = 6
THRESH=10
$end

$solvent
dielectric 4.90
$end
--------------------------------------------------------------

             Standard Nuclear Orientation (Angstroms)
    I     Atom           X                Y                Z
 ----------------------------------------------------------------
    1      C      -0.1148880000    -0.5660070000     0.0111180000
    2      C       0.0351120000     0.2844930000     1.1105180000
    3      C       0.2754120000     1.6473930000     0.7878180000
    4      H      -0.0289880000    -0.0787070000     2.1472180000
    5      C       0.3138120000     1.8646930000    -0.6013820000
    6      S       0.0488120000     0.3620930000    -1.4756820000
    7      C       0.4643120000     2.7185930000     1.8257180000
    8      H       0.3904120000     2.2993930000     2.8478180000
    9      H      -0.3008880000     3.5178930000     1.7373180000
   10      H       1.4568120000     3.2078930000     1.7373180000
   11      C      -0.1148880000    -2.0067070000     0.0111180000
   12      H      -0.6549880000    -2.0069070000     0.9463180000
   13      H       0.5945120000    -2.7105070000     0.4207180000
   14      H      -0.9350880000    -2.5256070000    -0.4624820000
   15      H       0.4786120000     2.7993930000    -1.1504820000
 ----------------------------------------------------------------

   10    -629.4224649285      5.21e-07  Convergence criterion met
 Total energy in the final basis set =     -629.4224649285
        RIMP2         total energy =      -630.6006283325 a.u.

                    Orbital Energies (a.u.)
 --------------------------------------------------------------

 Alpha MOs
 -- Occupied --
-91.9756 -11.2778 -11.2562 -11.2472 -11.2324 -11.2273 -11.2168  -8.9756
 -6.6566  -6.6560  -6.6555  -1.1608  -1.0541  -0.9991  -0.9402  -0.8842
 -0.7425  -0.7230  -0.6493  -0.5894  -0.5765  -0.5655  -0.5601  -0.5425
 -0.5104  -0.4873  -0.4663  -0.4414  -0.3377  -0.3001

          Ground-State Mulliken Net Atomic Charges

     Atom                 Charge (a.u.)
  ----------------------------------------
      1 C                     0.056519
      2 C                    -0.274936
      3 C                     0.036184
      4 H                     0.178124
      5 C                    -0.256522
      6 S                    -0.006117
      7 C                    -0.273921
      8 H                     0.101156
      9 H                     0.107035
     10 H                     0.107321
     11 C                    -0.371465
     12 H                     0.123762
     13 H                     0.143701
     14 H                     0.136085
     15 H                     0.193075
  ----------------------------------------
  Sum of atomic charges =     0.000000

                    Cartesian Multipole Moments
 -----------------------------------------------------------------
    Charge (ESU x 10^10)
                -0.0000
    Dipole Moment (Debye)
         X      -0.0965      Y      -0.1646      Z       2.0614
       Tot       2.0702
    Quadrupole Moments (Debye-Ang)
        XX     -53.5309     XY       2.2136     YY     -42.4207
        XZ       0.2562     YZ      -0.9940     ZZ     -48.8237

 Total job time:  158.92s(wall), 156.36s(cpu)
        *  Thank you very much for using Q-Chem.  Have a nice day.  *
