 Q-Chem 5.4, Q-Chem, Inc., Pleasanton, CA (2021)
 Q-Chem 5.4.0 for Intel X86 EM64T Linux

User input:
--------------------------------------------------------------
$molecule
0 1
C	-0.170896	-0.553191	0.013624
C	0.052604	0.281009	1.113024
C	0.410804	1.617709	0.790324
H	-0.042796	-0.075291	2.149724
C	0.468004	1.830809	-0.598876
S	0.073004	0.357109	-1.473176
C	0.692404	2.668409	1.828224
H	0.582204	2.257309	2.850324
H	-0.000196	3.531409	1.739824
H	1.723704	3.069409	1.739824
C	-0.170896	-1.993891	0.013624
H	-1.234496	-1.993591	0.201024
H	-0.313096	-2.697691	-0.793176
H	-0.006396	-2.512791	0.946324
H	0.713704	2.747709	-1.147976
$end

$rem
JOBTYPE		SP
EXCHANGE	HF
CORRELATION	pRIMP2
BASIS		cc-pvtz
METHOD		rimp2
AUX_BASIS	rimp2-cc-pvtz
SOLVENT_METHOD	PCM
PURECART	11111
SYMMETRY	false
MEM_TOTAL	110000
SCF_CONVERGENCE = 6
THRESH=10
$end

$solvent
dielectric 4.90
$end
--------------------------------------------------------------

             Standard Nuclear Orientation (Angstroms)
    I     Atom           X                Y                Z
 ----------------------------------------------------------------
    1      C      -0.1708960000    -0.5531910000     0.0136240000
    2      C       0.0526040000     0.2810090000     1.1130240000
    3      C       0.4108040000     1.6177090000     0.7903240000
    4      H      -0.0427960000    -0.0752910000     2.1497240000
    5      C       0.4680040000     1.8308090000    -0.5988760000
    6      S       0.0730040000     0.3571090000    -1.4731760000
    7      C       0.6924040000     2.6684090000     1.8282240000
    8      H       0.5822040000     2.2573090000     2.8503240000
    9      H      -0.0001960000     3.5314090000     1.7398240000
   10      H       1.7237040000     3.0694090000     1.7398240000
   11      C      -0.1708960000    -1.9938910000     0.0136240000
   12      H      -1.2344960000    -1.9935910000     0.2010240000
   13      H      -0.3130960000    -2.6976910000    -0.7931760000
   14      H      -0.0063960000    -2.5127910000     0.9463240000
   15      H       0.7137040000     2.7477090000    -1.1479760000
 ----------------------------------------------------------------

   10    -629.4175764735      6.60e-07  Convergence criterion met
 Total energy in the final basis set =     -629.4175764735
        RIMP2         total energy =      -630.5949003279 a.u.

                    Orbital Energies (a.u.)
 --------------------------------------------------------------

 Alpha MOs
 -- Occupied --
-91.9770 -11.2835 -11.2498 -11.2471 -11.2265 -11.2253 -11.2201  -8.9769
 -6.6579  -6.6573  -6.6567  -1.1602  -1.0556  -0.9976  -0.9414  -0.8831
 -0.7434  -0.7193  -0.6470  -0.5888  -0.5734  -0.5713  -0.5540  -0.5448
 -0.5093  -0.4939  -0.4611  -0.4543  -0.3378  -0.2879

          Ground-State Mulliken Net Atomic Charges

     Atom                 Charge (a.u.)
  ----------------------------------------
      1 C                     0.060655
      2 C                    -0.310195
      3 C                     0.053084
      4 H                     0.175651
      5 C                    -0.277436
      6 S                     0.001829
      7 C                    -0.273029
      8 H                     0.101271
      9 H                     0.107230
     10 H                     0.107270
     11 C                    -0.382693
     12 H                     0.139503
     13 H                     0.162838
     14 H                     0.142262
     15 H                     0.191760
  ----------------------------------------
  Sum of atomic charges =     0.000000

                    Cartesian Multipole Moments
 -----------------------------------------------------------------
    Charge (ESU x 10^10)
                -0.0000
    Dipole Moment (Debye)
         X      -0.4372      Y      -0.6812      Z       1.5578
       Tot       1.7555
    Quadrupole Moments (Debye-Ang)
        XX     -53.5998     XY       3.7864     YY     -42.4615
        XZ       0.1685     YZ       0.2284     ZZ     -48.5461

 Total job time:  155.63s(wall), 154.75s(cpu)
        *  Thank you very much for using Q-Chem.  Have a nice day.  *
