 Q-Chem 5.4, Q-Chem, Inc., Pleasanton, CA (2021)
 Q-Chem 5.4.0 for Intel X86 EM64T Linux

User input:
--------------------------------------------------------------
$molecule
0 1
C	-0.170696	-0.553191	0.015309
C	0.052804	0.281009	1.114709
C	0.411004	1.617709	0.792009
H	-0.042596	-0.075291	2.151409
C	0.468204	1.830809	-0.597191
S	0.073204	0.357109	-1.471491
C	0.692604	2.668409	1.829909
H	0.582404	2.257309	2.852009
H	0.000004	3.531409	1.741509
H	1.723904	3.069409	1.741509
C	-0.170696	-1.993891	0.015309
H	-1.234296	-1.993591	-0.172391
H	-0.028396	-2.697691	-0.791391
H	-0.335196	-2.512791	0.948009
H	0.713904	2.747709	-1.146291
$end

$rem
JOBTYPE		SP
EXCHANGE	HF
CORRELATION	pRIMP2
BASIS		cc-pvtz
METHOD		rimp2
AUX_BASIS	rimp2-cc-pvtz
SOLVENT_METHOD	PCM
PURECART	11111
SYMMETRY	false
MEM_TOTAL	110000
SCF_CONVERGENCE = 6
THRESH=10
$end

$solvent
dielectric 4.90
$end
--------------------------------------------------------------

             Standard Nuclear Orientation (Angstroms)
    I     Atom           X                Y                Z
 ----------------------------------------------------------------
    1      C      -0.1706960000    -0.5531910000     0.0153090000
    2      C       0.0528040000     0.2810090000     1.1147090000
    3      C       0.4110040000     1.6177090000     0.7920090000
    4      H      -0.0425960000    -0.0752910000     2.1514090000
    5      C       0.4682040000     1.8308090000    -0.5971910000
    6      S       0.0732040000     0.3571090000    -1.4714910000
    7      C       0.6926040000     2.6684090000     1.8299090000
    8      H       0.5824040000     2.2573090000     2.8520090000
    9      H       0.0000040000     3.5314090000     1.7415090000
   10      H       1.7239040000     3.0694090000     1.7415090000
   11      C      -0.1706960000    -1.9938910000     0.0153090000
   12      H      -1.2342960000    -1.9935910000    -0.1723910000
   13      H      -0.0283960000    -2.6976910000    -0.7913910000
   14      H      -0.3351960000    -2.5127910000     0.9480090000
   15      H       0.7139040000     2.7477090000    -1.1462910000
 ----------------------------------------------------------------

   10    -629.4173660332      6.51e-07  Convergence criterion met
 Total energy in the final basis set =     -629.4173660332
        RIMP2         total energy =      -630.5944184921 a.u.

                    Orbital Energies (a.u.)
 --------------------------------------------------------------

 Alpha MOs
 -- Occupied --
-91.9774 -11.2828 -11.2508 -11.2470 -11.2265 -11.2252 -11.2200  -8.9773
 -6.6583  -6.6578  -6.6572  -1.1603  -1.0556  -0.9970  -0.9426  -0.8827
 -0.7444  -0.7189  -0.6468  -0.5887  -0.5738  -0.5716  -0.5512  -0.5460
 -0.5094  -0.4929  -0.4607  -0.4564  -0.3383  -0.2883

          Ground-State Mulliken Net Atomic Charges

     Atom                 Charge (a.u.)
  ----------------------------------------
      1 C                     0.043297
      2 C                    -0.287456
      3 C                     0.044649
      4 H                     0.179257
      5 C                    -0.273681
      6 S                    -0.003879
      7 C                    -0.272823
      8 H                     0.101270
      9 H                     0.107121
     10 H                     0.107118
     11 C                    -0.376319
     12 H                     0.136540
     13 H                     0.162390
     14 H                     0.139329
     15 H                     0.193187
  ----------------------------------------
  Sum of atomic charges =     0.000000

                    Cartesian Multipole Moments
 -----------------------------------------------------------------
    Charge (ESU x 10^10)
                -0.0000
    Dipole Moment (Debye)
         X      -0.4154      Y      -0.6212      Z       1.3123
       Tot       1.5102
    Quadrupole Moments (Debye-Ang)
        XX     -53.6298     XY       3.7181     YY     -42.4205
        XZ      -0.0313     YZ       0.7011     ZZ     -48.5396

 Total job time:  156.86s(wall), 154.88s(cpu)
        *  Thank you very much for using Q-Chem.  Have a nice day.  *
