 Q-Chem 5.4, Q-Chem, Inc., Pleasanton, CA (2021)
 Q-Chem 5.4.0 for Intel X86 EM64T Linux

User input:
--------------------------------------------------------------
$molecule
0 1
C	-0.063997	-0.573729	0.015606
C	0.011303	0.286571	1.115006
C	0.131903	1.665271	0.792306
H	-0.020797	-0.080829	2.151706
C	0.151203	1.885071	-0.596894
S	0.018203	0.365071	-1.471194
C	0.226803	2.748871	1.830206
H	0.189703	2.324771	2.852306
H	-0.605197	3.478371	1.741806
H	1.172803	3.322871	1.741806
C	-0.063997	-2.014429	0.015606
H	1.016003	-2.014129	0.015706
H	-0.064097	-2.718229	0.834806
H	-0.063997	-2.533329	-0.931494
H	0.233903	2.830671	-1.145994
$end

$rem
JOBTYPE		SP
EXCHANGE	HF
CORRELATION	pRIMP2
BASIS		cc-pvtz
METHOD		rimp2
AUX_BASIS	rimp2-cc-pvtz
SOLVENT_METHOD	PCM
PURECART	11111
SYMMETRY	false
MEM_TOTAL	110000
SCF_CONVERGENCE = 6
THRESH=10
$end

$solvent
dielectric 4.90
$end
--------------------------------------------------------------

             Standard Nuclear Orientation (Angstroms)
    I     Atom           X                Y                Z
 ----------------------------------------------------------------
    1      C      -0.0639970000    -0.5737290000     0.0156060000
    2      C       0.0113030000     0.2865710000     1.1150060000
    3      C       0.1319030000     1.6652710000     0.7923060000
    4      H      -0.0207970000    -0.0808290000     2.1517060000
    5      C       0.1512030000     1.8850710000    -0.5968940000
    6      S       0.0182030000     0.3650710000    -1.4711940000
    7      C       0.2268030000     2.7488710000     1.8302060000
    8      H       0.1897030000     2.3247710000     2.8523060000
    9      H      -0.6051970000     3.4783710000     1.7418060000
   10      H       1.1728030000     3.3228710000     1.7418060000
   11      C      -0.0639970000    -2.0144290000     0.0156060000
   12      H       1.0160030000    -2.0141290000     0.0157060000
   13      H      -0.0640970000    -2.7182290000     0.8348060000
   14      H      -0.0639970000    -2.5333290000    -0.9314940000
   15      H       0.2339030000     2.8306710000    -1.1459940000
 ----------------------------------------------------------------

   10    -629.4247010315      7.16e-07  Convergence criterion met
 Total energy in the final basis set =     -629.4247010315
        RIMP2         total energy =      -630.5995683907 a.u.

                    Orbital Energies (a.u.)
 --------------------------------------------------------------

 Alpha MOs
 -- Occupied --
-91.9792 -11.2862 -11.2483 -11.2468 -11.2263 -11.2228 -11.2215  -8.9789
 -6.6599  -6.6594  -6.6587  -1.1604  -1.0565  -0.9971  -0.9424  -0.8824
 -0.7439  -0.7184  -0.6498  -0.5867  -0.5752  -0.5671  -0.5542  -0.5466
 -0.5067  -0.4948  -0.4664  -0.4574  -0.3386  -0.2881

          Ground-State Mulliken Net Atomic Charges

     Atom                 Charge (a.u.)
  ----------------------------------------
      1 C                     0.065795
      2 C                    -0.314342
      3 C                     0.053768
      4 H                     0.175153
      5 C                    -0.283958
      6 S                     0.003218
      7 C                    -0.274156
      8 H                     0.101365
      9 H                     0.107205
     10 H                     0.107386
     11 C                    -0.383104
     12 H                     0.146036
     13 H                     0.165141
     14 H                     0.137455
     15 H                     0.193038
  ----------------------------------------
  Sum of atomic charges =     0.000000

                    Cartesian Multipole Moments
 -----------------------------------------------------------------
    Charge (ESU x 10^10)
                -0.0000
    Dipole Moment (Debye)
         X       0.8366      Y      -0.7826      Z       1.3741
       Tot       1.7889
    Quadrupole Moments (Debye-Ang)
        XX     -54.4328     XY      -0.7808     YY     -41.7382
        XZ       0.0844     YZ       0.1931     ZZ     -48.5868

 Total job time:  158.53s(wall), 157.50s(cpu)
        *  Thank you very much for using Q-Chem.  Have a nice day.  *
