 Q-Chem 5.4, Q-Chem, Inc., Pleasanton, CA (2021)
 Q-Chem 5.4.0 for Intel X86 EM64T Linux

User input:
--------------------------------------------------------------
$molecule
0 1
C	-0.228664	-0.535395	0.018592
C	0.066736	0.276105	1.117992
C	0.540036	1.576505	0.795292
H	-0.059364	-0.070395	2.154692
C	0.615536	1.783905	-0.593908
S	0.093636	0.350205	-1.468208
C	0.912136	2.598705	1.833192
H	0.766536	2.198705	2.855292
H	0.297336	3.518705	1.744792
H	1.974536	2.908305	1.744792
C	-0.228664	-1.976095	0.018592
H	-1.055964	-1.976295	-0.675708
H	-0.755264	-2.679895	0.646092
H	0.380136	-2.494995	-0.707008
H	0.940236	2.675905	-1.143008
$end

$rem
JOBTYPE		SP
EXCHANGE	HF
CORRELATION	pRIMP2
BASIS		cc-pvtz
METHOD		rimp2
AUX_BASIS	rimp2-cc-pvtz
SOLVENT_METHOD	PCM
PURECART	11111
SYMMETRY	false
MEM_TOTAL	110000
SCF_CONVERGENCE = 6
THRESH=10
$end

$solvent
dielectric 4.90
$end
--------------------------------------------------------------

   10    -629.4127448175      5.66e-07  Convergence criterion met
 Total energy in the final basis set =     -629.4127448175
        RIMP2         total energy =      -630.5911146655 a.u.
 Total job time:  158.90s(wall), 155.90s(cpu)
        *  Thank you very much for using Q-Chem.  Have a nice day.  *
 Q-Chem 5.4, Q-Chem, Inc., Pleasanton, CA (2021)
 Q-Chem 5.4.0 for Intel X86 EM64T Linux

User input:
--------------------------------------------------------------
$molecule
0 1
C	-0.228664	-0.535395	0.018592
C	0.066736	0.276105	1.117992
C	0.540036	1.576505	0.795292
H	-0.059364	-0.070395	2.154692
C	0.615536	1.783905	-0.593908
S	0.093636	0.350205	-1.468208
C	0.912136	2.598705	1.833192
H	0.766536	2.198705	2.855292
H	0.297336	3.518705	1.744792
H	1.974536	2.908305	1.744792
C	-0.228664	-1.976095	0.018592
H	-1.055964	-1.976295	-0.675708
H	-0.755264	-2.679895	0.646092
H	0.380136	-2.494995	-0.707008
H	0.940236	2.675905	-1.143008
$end

$rem
JOBTYPE		SP
EXCHANGE	HF
CORRELATION	pRIMP2
BASIS		cc-pvtz
METHOD		rimp2
AUX_BASIS	rimp2-cc-pvtz
SOLVENT_METHOD	PCM
PURECART	11111
SYMMETRY	false
MEM_TOTAL	110000
SCF_CONVERGENCE = 6
THRESH=10
$end

$solvent
dielectric 4.90
$end
--------------------------------------------------------------

             Standard Nuclear Orientation (Angstroms)
    I     Atom           X                Y                Z
 ----------------------------------------------------------------
    1      C      -0.2286640000    -0.5353950000     0.0185920000
    2      C       0.0667360000     0.2761050000     1.1179920000
    3      C       0.5400360000     1.5765050000     0.7952920000
    4      H      -0.0593640000    -0.0703950000     2.1546920000
    5      C       0.6155360000     1.7839050000    -0.5939080000
    6      S       0.0936360000     0.3502050000    -1.4682080000
    7      C       0.9121360000     2.5987050000     1.8331920000
    8      H       0.7665360000     2.1987050000     2.8552920000
    9      H       0.2973360000     3.5187050000     1.7447920000
   10      H       1.9745360000     2.9083050000     1.7447920000
   11      C      -0.2286640000    -1.9760950000     0.0185920000
   12      H      -1.0559640000    -1.9762950000    -0.6757080000
   13      H      -0.7552640000    -2.6798950000     0.6460920000
   14      H       0.3801360000    -2.4949950000    -0.7070080000
   15      H       0.9402360000     2.6759050000    -1.1430080000
 ----------------------------------------------------------------

   10    -629.4127448175      5.66e-07  Convergence criterion met
 Total energy in the final basis set =     -629.4127448175
        RIMP2         total energy =      -630.5911146655 a.u.

                    Orbital Energies (a.u.)
 --------------------------------------------------------------

 Alpha MOs
 -- Occupied --
-91.9793 -11.2767 -11.2561 -11.2470 -11.2275 -11.2266 -11.2169  -8.9792
 -6.6602  -6.6596  -6.6590  -1.1612  -1.0551  -0.9956  -0.9448  -0.8819
 -0.7464  -0.7189  -0.6473  -0.5895  -0.5744  -0.5673  -0.5528  -0.5466
 -0.5098  -0.4873  -0.4628  -0.4519  -0.3386  -0.2938

          Ground-State Mulliken Net Atomic Charges

     Atom                 Charge (a.u.)
  ----------------------------------------
      1 C                     0.016094
      2 C                    -0.253674
      3 C                     0.033803
      4 H                     0.180182
      5 C                    -0.253529
      6 S                    -0.004785
      7 C                    -0.272992
      8 H                     0.101504
      9 H                     0.107030
     10 H                     0.106675
     11 C                    -0.373017
     12 H                     0.123486
     13 H                     0.158680
     14 H                     0.135956
     15 H                     0.194586
  ----------------------------------------
  Sum of atomic charges =     0.000000

                    Cartesian Multipole Moments
 -----------------------------------------------------------------
    Charge (ESU x 10^10)
                -0.0000
    Dipole Moment (Debye)
         X      -0.0098      Y      -0.2461      Z       1.0442
       Tot       1.0728
    Quadrupole Moments (Debye-Ang)
        XX     -52.9428     XY       4.0624     YY     -43.0972
        XZ      -0.2156     YZ       0.9174     ZZ     -48.6196

 Total job time:  157.38s(wall), 156.35s(cpu)
        *  Thank you very much for using Q-Chem.  Have a nice day.  *
