 Q-Chem 5.4, Q-Chem, Inc., Pleasanton, CA (2021)
 Q-Chem 5.4.0 for Intel X86 EM64T Linux

User input:
--------------------------------------------------------------
$molecule
0 1
C	-0.118932	-0.566010	0.019787
C	0.031068	0.284490	1.119187
C	0.271368	1.647390	0.796487
H	-0.033032	-0.078710	2.155887
C	0.309768	1.864690	-0.592713
S	0.044768	0.362090	-1.467013
C	0.460268	2.718590	1.834387
H	0.386368	2.299390	2.856487
H	-0.304932	3.517890	1.745987
H	1.452768	3.207890	1.745987
C	-0.118932	-2.006710	0.019787
H	0.250568	-2.006410	-0.995013
H	0.650868	-2.710510	0.299987
H	-1.008932	-2.525610	-0.304113
H	0.474568	2.799390	-1.141813
$end

$rem
JOBTYPE		SP
EXCHANGE	HF
CORRELATION	pRIMP2
BASIS		cc-pvtz
METHOD		rimp2
AUX_BASIS	rimp2-cc-pvtz
SOLVENT_METHOD	PCM
PURECART	11111
SYMMETRY	false
MEM_TOTAL	110000
SCF_CONVERGENCE = 6
THRESH=10
$end

$solvent
dielectric 4.90
$end
--------------------------------------------------------------

   10    -629.4185140488      5.72e-07  Convergence criterion met
 Total energy in the final basis set =     -629.4185140488
        RIMP2         total energy =      -630.5963847190 a.u.
 Total job time:  157.84s(wall), 155.41s(cpu)
        *  Thank you very much for using Q-Chem.  Have a nice day.  *
 Q-Chem 5.4, Q-Chem, Inc., Pleasanton, CA (2021)
 Q-Chem 5.4.0 for Intel X86 EM64T Linux

User input:
--------------------------------------------------------------
$molecule
0 1
C	-0.118932	-0.566010	0.019787
C	0.031068	0.284490	1.119187
C	0.271368	1.647390	0.796487
H	-0.033032	-0.078710	2.155887
C	0.309768	1.864690	-0.592713
S	0.044768	0.362090	-1.467013
C	0.460268	2.718590	1.834387
H	0.386368	2.299390	2.856487
H	-0.304932	3.517890	1.745987
H	1.452768	3.207890	1.745987
C	-0.118932	-2.006710	0.019787
H	0.250568	-2.006410	-0.995013
H	0.650868	-2.710510	0.299987
H	-1.008932	-2.525610	-0.304113
H	0.474568	2.799390	-1.141813
$end

$rem
JOBTYPE		SP
EXCHANGE	HF
CORRELATION	pRIMP2
BASIS		cc-pvtz
METHOD		rimp2
AUX_BASIS	rimp2-cc-pvtz
SOLVENT_METHOD	PCM
PURECART	11111
SYMMETRY	false
MEM_TOTAL	110000
SCF_CONVERGENCE = 6
THRESH=10
$end

$solvent
dielectric 4.90
$end
--------------------------------------------------------------

             Standard Nuclear Orientation (Angstroms)
    I     Atom           X                Y                Z
 ----------------------------------------------------------------
    1      C      -0.1189320000    -0.5660100000     0.0197870000
    2      C       0.0310680000     0.2844900000     1.1191870000
    3      C       0.2713680000     1.6473900000     0.7964870000
    4      H      -0.0330320000    -0.0787100000     2.1558870000
    5      C       0.3097680000     1.8646900000    -0.5927130000
    6      S       0.0447680000     0.3620900000    -1.4670130000
    7      C       0.4602680000     2.7185900000     1.8343870000
    8      H       0.3863680000     2.2993900000     2.8564870000
    9      H      -0.3049320000     3.5178900000     1.7459870000
   10      H       1.4527680000     3.2078900000     1.7459870000
   11      C      -0.1189320000    -2.0067100000     0.0197870000
   12      H       0.2505680000    -2.0064100000    -0.9950130000
   13      H       0.6508680000    -2.7105100000     0.2999870000
   14      H      -1.0089320000    -2.5256100000    -0.3041130000
   15      H       0.4745680000     2.7993900000    -1.1418130000
 ----------------------------------------------------------------

   10    -629.4185140488      5.72e-07  Convergence criterion met
 Total energy in the final basis set =     -629.4185140488
        RIMP2         total energy =      -630.5963847190 a.u.

                    Orbital Energies (a.u.)
 --------------------------------------------------------------

 Alpha MOs
 -- Occupied --
-91.9797 -11.2753 -11.2575 -11.2469 -11.2292 -11.2268 -11.2160  -8.9797
 -6.6606  -6.6600  -6.6594  -1.1612  -1.0553  -0.9952  -0.9461  -0.8815
 -0.7478  -0.7187  -0.6484  -0.5904  -0.5758  -0.5655  -0.5536  -0.5475
 -0.5094  -0.4857  -0.4648  -0.4456  -0.3386  -0.3017

          Ground-State Mulliken Net Atomic Charges

     Atom                 Charge (a.u.)
  ----------------------------------------
      1 C                     0.053639
      2 C                    -0.273432
      3 C                     0.044880
      4 H                     0.180243
      5 C                    -0.259900
      6 S                    -0.003672
      7 C                    -0.273140
      8 H                     0.101784
      9 H                     0.107052
     10 H                     0.106868
     11 C                    -0.370301
     12 H                     0.117031
     13 H                     0.148529
     14 H                     0.125162
     15 H                     0.195257
  ----------------------------------------
  Sum of atomic charges =     0.000000

                    Cartesian Multipole Moments
 -----------------------------------------------------------------
    Charge (ESU x 10^10)
                -0.0000
    Dipole Moment (Debye)
         X       0.4770      Y      -0.0261      Z       0.8724
       Tot       0.9947
    Quadrupole Moments (Debye-Ang)
        XX     -53.5762     XY       0.9019     YY     -42.4578
        XZ       0.2771     YZ       1.4104     ZZ     -48.7921

 Total job time:  156.69s(wall), 155.08s(cpu)
        *  Thank you very much for using Q-Chem.  Have a nice day.  *
