 Q-Chem 5.4, Q-Chem, Inc., Pleasanton, CA (2021)
 Q-Chem 5.4.0 for Intel X86 EM64T Linux

User input:
--------------------------------------------------------------
$molecule
0 1
C	-0.438965	-0.417594	0.018946
C	0.116135	0.243906	1.118346
C	1.005735	1.304106	0.795646
H	-0.120865	-0.038594	2.155046
C	1.147635	1.473106	-0.593554
S	0.166835	0.304306	-1.467854
C	1.704935	2.137306	1.833546
H	1.431335	1.811306	2.855646
H	1.441935	3.212106	1.745146
H	2.809135	2.064906	1.745146
C	-0.438965	-1.858294	0.018946
H	0.101135	-1.858494	-0.916254
H	-1.148365	-2.562094	-0.390654
H	0.381235	-2.377194	0.492546
H	1.757735	2.200206	-1.142654
$end

$rem
JOBTYPE		SP
EXCHANGE	HF
CORRELATION	pRIMP2
BASIS		cc-pvtz
METHOD		rimp2
AUX_BASIS	rimp2-cc-pvtz
SOLVENT_METHOD	PCM
PURECART	11111
SYMMETRY	false
MEM_TOTAL	110000
SCF_CONVERGENCE = 6
THRESH=10
$end

$solvent
dielectric 4.90
$end
--------------------------------------------------------------

             Standard Nuclear Orientation (Angstroms)
    I     Atom           X                Y                Z
 ----------------------------------------------------------------
    1      C      -0.4389650000    -0.4175940000     0.0189460000
    2      C       0.1161350000     0.2439060000     1.1183460000
    3      C       1.0057350000     1.3041060000     0.7956460000
    4      H      -0.1208650000    -0.0385940000     2.1550460000
    5      C       1.1476350000     1.4731060000    -0.5935540000
    6      S       0.1668350000     0.3043060000    -1.4678540000
    7      C       1.7049350000     2.1373060000     1.8335460000
    8      H       1.4313350000     1.8113060000     2.8556460000
    9      H       1.4419350000     3.2121060000     1.7451460000
   10      H       2.8091350000     2.0649060000     1.7451460000
   11      C      -0.4389650000    -1.8582940000     0.0189460000
   12      H       0.1011350000    -1.8584940000    -0.9162540000
   13      H      -1.1483650000    -2.5620940000    -0.3906540000
   14      H       0.3812350000    -2.3771940000     0.4925460000
   15      H       1.7577350000     2.2002060000    -1.1426540000
 ----------------------------------------------------------------

   10    -629.3864003802      5.91e-07  Convergence criterion met
 Total energy in the final basis set =     -629.3864003802
        RIMP2         total energy =      -630.5706400962 a.u.

                    Orbital Energies (a.u.)
 --------------------------------------------------------------

 Alpha MOs
 -- Occupied --
-91.9740 -11.2659 -11.2658 -11.2473 -11.2384 -11.2277 -11.2109  -8.9750
 -6.6559  -6.6552  -6.6547  -1.1671  -1.0564  -0.9943  -0.9441  -0.8795
 -0.7506  -0.7224  -0.6449  -0.5901  -0.5790  -0.5653  -0.5511  -0.5484
 -0.5124  -0.4818  -0.4627  -0.4407  -0.3369  -0.2980

          Ground-State Mulliken Net Atomic Charges

     Atom                 Charge (a.u.)
  ----------------------------------------
      1 C                    -0.000886
      2 C                    -0.238686
      3 C                     0.033528
      4 H                     0.179893
      5 C                    -0.233860
      6 S                    -0.004071
      7 C                    -0.269654
      8 H                     0.101681
      9 H                     0.107570
     10 H                     0.105673
     11 C                    -0.378028
     12 H                     0.132405
     13 H                     0.134353
     14 H                     0.135125
     15 H                     0.194956
  ----------------------------------------
  Sum of atomic charges =     0.000000

                    Cartesian Multipole Moments
 -----------------------------------------------------------------
    Charge (ESU x 10^10)
                -0.0000
    Dipole Moment (Debye)
         X       1.6186      Y       0.0489      Z       1.0601
       Tot       1.9355
    Quadrupole Moments (Debye-Ang)
        XX     -50.8745     XY       3.8070     YY     -46.5806
        XZ       0.4322     YZ       1.3390     ZZ     -48.3739

 Total job time:  159.44s(wall), 157.73s(cpu)
        *  Thank you very much for using Q-Chem.  Have a nice day.  *
