 Q-Chem 5.4, Q-Chem, Inc., Pleasanton, CA (2021)
 Q-Chem 5.4.0 for Intel X86 EM64T Linux

User input:
--------------------------------------------------------------
$molecule
0 1
C	-0.437969	-0.417597	0.019521
C	0.117131	0.243903	1.118921
C	1.006731	1.304103	0.796221
H	-0.119869	-0.038597	2.155621
C	1.148631	1.473103	-0.592979
S	0.167831	0.304303	-1.467279
C	1.705931	2.137303	1.834121
H	1.432331	1.811303	2.856221
H	1.442931	3.212103	1.745721
H	2.810131	2.064903	1.745721
C	-0.437969	-1.858297	0.019521
H	0.102131	-1.857997	-0.915679
H	0.271431	-2.562097	0.429121
H	-1.258169	-2.377197	-0.454079
H	1.758731	2.200203	-1.142079
$end

$rem
JOBTYPE		SP
EXCHANGE	HF
CORRELATION	pRIMP2
BASIS		cc-pvtz
METHOD		rimp2
AUX_BASIS	rimp2-cc-pvtz
SOLVENT_METHOD	PCM
PURECART	11111
SYMMETRY	false
MEM_TOTAL	110000
SCF_CONVERGENCE = 6
THRESH=10
$end

$solvent
dielectric 4.90
$end
--------------------------------------------------------------

             Standard Nuclear Orientation (Angstroms)
    I     Atom           X                Y                Z
 ----------------------------------------------------------------
    1      C      -0.4379690000    -0.4175970000     0.0195210000
    2      C       0.1171310000     0.2439030000     1.1189210000
    3      C       1.0067310000     1.3041030000     0.7962210000
    4      H      -0.1198690000    -0.0385970000     2.1556210000
    5      C       1.1486310000     1.4731030000    -0.5929790000
    6      S       0.1678310000     0.3043030000    -1.4672790000
    7      C       1.7059310000     2.1373030000     1.8341210000
    8      H       1.4323310000     1.8113030000     2.8562210000
    9      H       1.4429310000     3.2121030000     1.7457210000
   10      H       2.8101310000     2.0649030000     1.7457210000
   11      C      -0.4379690000    -1.8582970000     0.0195210000
   12      H       0.1021310000    -1.8579970000    -0.9156790000
   13      H       0.2714310000    -2.5620970000     0.4291210000
   14      H      -1.2581690000    -2.3771970000    -0.4540790000
   15      H       1.7587310000     2.2002030000    -1.1420790000
 ----------------------------------------------------------------

   10    -629.3841462123      6.07e-07  Convergence criterion met
 Total energy in the final basis set =     -629.3841462123
        RIMP2         total energy =      -630.5685188792 a.u.

                    Orbital Energies (a.u.)
 --------------------------------------------------------------

 Alpha MOs
 -- Occupied --
-91.9740 -11.2669 -11.2641 -11.2473 -11.2391 -11.2276 -11.2101  -8.9751
 -6.6560  -6.6552  -6.6547  -1.1669  -1.0562  -0.9941  -0.9447  -0.8794
 -0.7507  -0.7224  -0.6463  -0.5865  -0.5798  -0.5663  -0.5518  -0.5479
 -0.5145  -0.4777  -0.4626  -0.4408  -0.3373  -0.2978

          Ground-State Mulliken Net Atomic Charges

     Atom                 Charge (a.u.)
  ----------------------------------------
      1 C                    -0.008574
      2 C                    -0.233552
      3 C                     0.030301
      4 H                     0.180238
      5 C                    -0.231080
      6 S                    -0.005504
      7 C                    -0.270055
      8 H                     0.101692
      9 H                     0.107493
     10 H                     0.105654
     11 C                    -0.375033
     12 H                     0.132189
     13 H                     0.154361
     14 H                     0.116512
     15 H                     0.195359
  ----------------------------------------
  Sum of atomic charges =     0.000000

                    Cartesian Multipole Moments
 -----------------------------------------------------------------
    Charge (ESU x 10^10)
                -0.0000
    Dipole Moment (Debye)
         X       1.6411      Y       0.1097      Z       1.0638
       Tot       1.9588
    Quadrupole Moments (Debye-Ang)
        XX     -50.8616     XY       3.5811     YY     -46.5742
        XZ       0.3719     YZ       1.1842     ZZ     -48.3892

 Total job time:  159.20s(wall), 157.42s(cpu)
        *  Thank you very much for using Q-Chem.  Have a nice day.  *
