 Q-Chem 5.4, Q-Chem, Inc., Pleasanton, CA (2021)
 Q-Chem 5.4.0 for Intel X86 EM64T Linux

User input:
--------------------------------------------------------------
$molecule
0 1
C	-0.171660	-0.553191	0.012109
C	0.051840	0.281009	1.111509
C	0.410040	1.617709	0.788809
H	-0.043560	-0.075291	2.148209
C	0.467240	1.830809	-0.600391
S	0.072240	0.357109	-1.474691
C	0.691640	2.668409	1.826709
H	0.581440	2.257309	2.848809
H	-0.000960	3.531409	1.738309
H	1.722940	3.069409	1.738309
C	-0.171660	-1.993891	0.012109
H	-1.107060	-1.993591	0.552009
H	-0.581160	-2.697691	-0.697391
H	0.301940	-2.512791	0.832309
H	0.712940	2.747709	-1.149491
$end

$rem
JOBTYPE		SP
EXCHANGE	HF
CORRELATION	pRIMP2
BASIS		cc-pvtz
METHOD		rimp2
AUX_BASIS	rimp2-cc-pvtz
SOLVENT_METHOD	PCM
PURECART	11111
SYMMETRY	false
MEM_TOTAL	110000
SCF_CONVERGENCE = 6
THRESH=10
$end

$solvent
dielectric 4.90
$end
--------------------------------------------------------------

             Standard Nuclear Orientation (Angstroms)
    I     Atom           X                Y                Z
 ----------------------------------------------------------------
    1      C      -0.1716600000    -0.5531910000     0.0121090000
    2      C       0.0518400000     0.2810090000     1.1115090000
    3      C       0.4100400000     1.6177090000     0.7888090000
    4      H      -0.0435600000    -0.0752910000     2.1482090000
    5      C       0.4672400000     1.8308090000    -0.6003910000
    6      S       0.0722400000     0.3571090000    -1.4746910000
    7      C       0.6916400000     2.6684090000     1.8267090000
    8      H       0.5814400000     2.2573090000     2.8488090000
    9      H      -0.0009600000     3.5314090000     1.7383090000
   10      H       1.7229400000     3.0694090000     1.7383090000
   11      C      -0.1716600000    -1.9938910000     0.0121090000
   12      H      -1.1070600000    -1.9935910000     0.5520090000
   13      H      -0.5811600000    -2.6976910000    -0.6973910000
   14      H       0.3019400000    -2.5127910000     0.8323090000
   15      H       0.7129400000     2.7477090000    -1.1494910000
 ----------------------------------------------------------------

   10    -629.4183539038      6.14e-07  Convergence criterion met
 Total energy in the final basis set =     -629.4183539038
        RIMP2         total energy =      -630.5963645037 a.u.

                    Orbital Energies (a.u.)
 --------------------------------------------------------------

 Alpha MOs
 -- Occupied --
-91.9763 -11.2820 -11.2513 -11.2474 -11.2276 -11.2268 -11.2190  -8.9762
 -6.6572  -6.6566  -6.6560  -1.1604  -1.0551  -0.9983  -0.9404  -0.8835
 -0.7427  -0.7204  -0.6473  -0.5899  -0.5746  -0.5688  -0.5571  -0.5438
 -0.5097  -0.4922  -0.4628  -0.4491  -0.3374  -0.2910

          Ground-State Mulliken Net Atomic Charges

     Atom                 Charge (a.u.)
  ----------------------------------------
      1 C                     0.065034
      2 C                    -0.308673
      3 C                     0.051317
      4 H                     0.175713
      5 C                    -0.270152
      6 S                    -0.000228
      7 C                    -0.274092
      8 H                     0.101152
      9 H                     0.107190
     10 H                     0.107364
     11 C                    -0.384848
     12 H                     0.137028
     13 H                     0.160965
     14 H                     0.140975
     15 H                     0.191256
  ----------------------------------------
  Sum of atomic charges =     0.000000

                    Cartesian Multipole Moments
 -----------------------------------------------------------------
    Charge (ESU x 10^10)
                -0.0000
    Dipole Moment (Debye)
         X      -0.3126      Y      -0.5562      Z       1.8129
       Tot       1.9219
    Quadrupole Moments (Debye-Ang)
        XX     -53.4438     XY       3.6462     YY     -42.5903
        XZ       0.3103     YZ      -0.2680     ZZ     -48.6326

 Total job time:  155.50s(wall), 154.69s(cpu)
        *  Thank you very much for using Q-Chem.  Have a nice day.  *
