 Q-Chem 5.4, Q-Chem, Inc., Pleasanton, CA (2021)
 Q-Chem 5.4.0 for Intel X86 EM64T Linux

User input:
--------------------------------------------------------------
$molecule
0 1
C	-0.119740	-0.566007	0.010542
C	0.030260	0.284493	1.109942
C	0.270560	1.647393	0.787242
H	-0.033840	-0.078707	2.146642
C	0.308960	1.864693	-0.601958
S	0.043960	0.362093	-1.476258
C	0.459460	2.718593	1.825142
H	0.385560	2.299393	2.847242
H	-0.305740	3.517893	1.736742
H	1.451960	3.207893	1.736742
C	-0.119740	-2.006707	0.010542
H	0.420160	-2.006907	0.945942
H	0.589760	-2.710507	-0.398958
H	-0.939940	-2.525607	0.484142
H	0.473760	2.799393	-1.151058
$end

$rem
JOBTYPE		SP
EXCHANGE	HF
CORRELATION	pRIMP2
BASIS		cc-pvtz
METHOD		rimp2
AUX_BASIS	rimp2-cc-pvtz
SOLVENT_METHOD	PCM
PURECART	11111
SYMMETRY	false
MEM_TOTAL	110000
SCF_CONVERGENCE = 6
THRESH=10
$end

$solvent
dielectric 4.90
$end
--------------------------------------------------------------

             Standard Nuclear Orientation (Angstroms)
    I     Atom           X                Y                Z
 ----------------------------------------------------------------
    1      C      -0.1197400000    -0.5660070000     0.0105420000
    2      C       0.0302600000     0.2844930000     1.1099420000
    3      C       0.2705600000     1.6473930000     0.7872420000
    4      H      -0.0338400000    -0.0787070000     2.1466420000
    5      C       0.3089600000     1.8646930000    -0.6019580000
    6      S       0.0439600000     0.3620930000    -1.4762580000
    7      C       0.4594600000     2.7185930000     1.8251420000
    8      H       0.3855600000     2.2993930000     2.8472420000
    9      H      -0.3057400000     3.5178930000     1.7367420000
   10      H       1.4519600000     3.2078930000     1.7367420000
   11      C      -0.1197400000    -2.0067070000     0.0105420000
   12      H       0.4201600000    -2.0069070000     0.9459420000
   13      H       0.5897600000    -2.7105070000    -0.3989580000
   14      H      -0.9399400000    -2.5256070000     0.4841420000
   15      H       0.4737600000     2.7993930000    -1.1510580000
 ----------------------------------------------------------------

   10    -629.4211726342      5.32e-07  Convergence criterion met
 Total energy in the final basis set =     -629.4211726342
        RIMP2         total energy =      -630.5993656108 a.u.

                    Orbital Energies (a.u.)
 --------------------------------------------------------------

 Alpha MOs
 -- Occupied --
-91.9763 -11.2797 -11.2545 -11.2472 -11.2310 -11.2272 -11.2169  -8.9762
 -6.6571  -6.6566  -6.6561  -1.1610  -1.0544  -0.9993  -0.9393  -0.8840
 -0.7422  -0.7228  -0.6483  -0.5914  -0.5762  -0.5690  -0.5582  -0.5425
 -0.5103  -0.4838  -0.4678  -0.4435  -0.3369  -0.2989

          Ground-State Mulliken Net Atomic Charges

     Atom                 Charge (a.u.)
  ----------------------------------------
      1 C                     0.060940
      2 C                    -0.269902
      3 C                     0.031833
      4 H                     0.176280
      5 C                    -0.259155
      6 S                    -0.005216
      7 C                    -0.273659
      8 H                     0.101080
      9 H                     0.107262
     10 H                     0.107106
     11 C                    -0.384867
     12 H                     0.131848
     13 H                     0.154262
     14 H                     0.129800
     15 H                     0.192389
  ----------------------------------------
  Sum of atomic charges =     0.000000

                    Cartesian Multipole Moments
 -----------------------------------------------------------------
    Charge (ESU x 10^10)
                -0.0000
    Dipole Moment (Debye)
         X       0.5648      Y      -0.2656      Z       2.0607
       Tot       2.1531
    Quadrupole Moments (Debye-Ang)
        XX     -53.6942     XY       0.6086     YY     -42.4571
        XZ      -0.2704     YZ      -0.8515     ZZ     -48.8163

 Total job time:  157.62s(wall), 155.32s(cpu)
        *  Thank you very much for using Q-Chem.  Have a nice day.  *
