 Q-Chem 5.4, Q-Chem, Inc., Pleasanton, CA (2021)
 Q-Chem 5.4.0 for Intel X86 EM64T Linux

User input:
--------------------------------------------------------------
$molecule
0 1
C	-0.118386	-0.566010	0.010180
C	0.031614	0.284490	1.109580
C	0.271914	1.647390	0.786880
H	-0.032486	-0.078710	2.146280
C	0.310314	1.864690	-0.602320
S	0.045314	0.362090	-1.476620
C	0.460814	2.718590	1.824780
H	0.386914	2.299390	2.846880
H	-0.304386	3.517890	1.736380
H	1.453314	3.207890	1.736380
C	-0.118386	-2.006710	0.010180
H	-0.118486	-2.006410	1.090180
H	-0.937586	-2.710510	0.010080
H	0.828714	-2.525610	0.010180
H	0.475114	2.799390	-1.151420
$end

$rem
JOBTYPE		SP
EXCHANGE	HF
CORRELATION	pRIMP2
BASIS		cc-pvtz
METHOD		rimp2
AUX_BASIS	rimp2-cc-pvtz
SOLVENT_METHOD	PCM
PURECART	11111
SYMMETRY	false
MEM_TOTAL	110000
SCF_CONVERGENCE = 6
THRESH=10
$end

$solvent
dielectric 4.90
$end
--------------------------------------------------------------

   10    -629.4235092113      4.90e-07  Convergence criterion met
 Total energy in the final basis set =     -629.4235092113
        RIMP2         total energy =      -630.6017131245 a.u.
 Total job time:  156.86s(wall), 155.01s(cpu)
        *  Thank you very much for using Q-Chem.  Have a nice day.  *
 Q-Chem 5.4, Q-Chem, Inc., Pleasanton, CA (2021)
 Q-Chem 5.4.0 for Intel X86 EM64T Linux

User input:
--------------------------------------------------------------
$molecule
0 1
C	-0.118386	-0.566010	0.010180
C	0.031614	0.284490	1.109580
C	0.271914	1.647390	0.786880
H	-0.032486	-0.078710	2.146280
C	0.310314	1.864690	-0.602320
S	0.045314	0.362090	-1.476620
C	0.460814	2.718590	1.824780
H	0.386914	2.299390	2.846880
H	-0.304386	3.517890	1.736380
H	1.453314	3.207890	1.736380
C	-0.118386	-2.006710	0.010180
H	-0.118486	-2.006410	1.090180
H	-0.937586	-2.710510	0.010080
H	0.828714	-2.525610	0.010180
H	0.475114	2.799390	-1.151420
$end

$rem
JOBTYPE		SP
EXCHANGE	HF
CORRELATION	pRIMP2
BASIS		cc-pvtz
METHOD		rimp2
AUX_BASIS	rimp2-cc-pvtz
SOLVENT_METHOD	PCM
PURECART	11111
SYMMETRY	false
MEM_TOTAL	110000
SCF_CONVERGENCE = 6
THRESH=10
$end

$solvent
dielectric 4.90
$end
--------------------------------------------------------------

             Standard Nuclear Orientation (Angstroms)
    I     Atom           X                Y                Z
 ----------------------------------------------------------------
    1      C      -0.1183860000    -0.5660100000     0.0101800000
    2      C       0.0316140000     0.2844900000     1.1095800000
    3      C       0.2719140000     1.6473900000     0.7868800000
    4      H      -0.0324860000    -0.0787100000     2.1462800000
    5      C       0.3103140000     1.8646900000    -0.6023200000
    6      S       0.0453140000     0.3620900000    -1.4766200000
    7      C       0.4608140000     2.7185900000     1.8247800000
    8      H       0.3869140000     2.2993900000     2.8468800000
    9      H      -0.3043860000     3.5178900000     1.7363800000
   10      H       1.4533140000     3.2078900000     1.7363800000
   11      C      -0.1183860000    -2.0067100000     0.0101800000
   12      H      -0.1184860000    -2.0064100000     1.0901800000
   13      H      -0.9375860000    -2.7105100000     0.0100800000
   14      H       0.8287140000    -2.5256100000     0.0101800000
   15      H       0.4751140000     2.7993900000    -1.1514200000
 ----------------------------------------------------------------

   10    -629.4235092113      4.90e-07  Convergence criterion met
 Total energy in the final basis set =     -629.4235092113
        RIMP2         total energy =      -630.6017131245 a.u.

                    Orbital Energies (a.u.)
 --------------------------------------------------------------

 Alpha MOs
 -- Occupied --
-91.9747 -11.2771 -11.2579 -11.2470 -11.2347 -11.2275 -11.2162  -8.9749
 -6.6558  -6.6552  -6.6547  -1.1613  -1.0540  -0.9997  -0.9395  -0.8845
 -0.7423  -0.7245  -0.6485  -0.5920  -0.5779  -0.5660  -0.5597  -0.5419
 -0.5104  -0.4848  -0.4679  -0.4369  -0.3380  -0.3044

          Ground-State Mulliken Net Atomic Charges

     Atom                 Charge (a.u.)
  ----------------------------------------
      1 C                     0.061602
      2 C                    -0.272562
      3 C                     0.033897
      4 H                     0.177253
      5 C                    -0.250192
      6 S                    -0.008198
      7 C                    -0.273072
      8 H                     0.101075
      9 H                     0.107127
     10 H                     0.107299
     11 C                    -0.370894
     12 H                     0.119568
     13 H                     0.146785
     14 H                     0.126999
     15 H                     0.193314
  ----------------------------------------
  Sum of atomic charges =     0.000000

                    Cartesian Multipole Moments
 -----------------------------------------------------------------
    Charge (ESU x 10^10)
                -0.0000
    Dipole Moment (Debye)
         X       0.2818      Y      -0.0557      Z       2.1551
       Tot       2.1741
    Quadrupole Moments (Debye-Ang)
        XX     -53.4418     XY       1.6140     YY     -42.4651
        XZ      -0.0382     YZ      -1.0926     ZZ     -48.9631

 Total job time:  157.06s(wall), 155.76s(cpu)
        *  Thank you very much for using Q-Chem.  Have a nice day.  *
