 Q-Chem 5.4, Q-Chem, Inc., Pleasanton, CA (2021)
 Q-Chem 5.4.0 for Intel X86 EM64T Linux

User input:
--------------------------------------------------------------
$molecule
0 1
C	-0.284496	-0.512746	0.019394
C	0.080504	0.269954	1.118794
C	0.665404	1.524154	0.796094
H	-0.075396	-0.064346	2.155494
C	0.758704	1.724154	-0.593106
S	0.113804	0.341354	-1.467406
C	1.125104	2.509954	1.833994
H	0.945204	2.124254	2.856094
H	0.592804	3.480154	1.745594
H	2.210404	2.725854	1.745594
C	-0.284496	-1.953446	0.019394
H	-0.653796	-1.953146	-0.995506
H	0.485304	-2.657246	-0.260706
H	-1.174496	-2.472346	0.343294
H	1.159804	2.584454	-1.142206
$end

$rem
JOBTYPE		SP
EXCHANGE	HF
CORRELATION	pRIMP2
BASIS		cc-pvtz
METHOD		rimp2
AUX_BASIS	rimp2-cc-pvtz
SOLVENT_METHOD	PCM
PURECART	11111
SYMMETRY	false
MEM_TOTAL	110000
SCF_CONVERGENCE = 6
THRESH=10
$end

$solvent
dielectric 4.90
$end
--------------------------------------------------------------

             Standard Nuclear Orientation (Angstroms)
    I     Atom           X                Y                Z
 ----------------------------------------------------------------
    1      C      -0.2844960000    -0.5127460000     0.0193940000
    2      C       0.0805040000     0.2699540000     1.1187940000
    3      C       0.6654040000     1.5241540000     0.7960940000
    4      H      -0.0753960000    -0.0643460000     2.1554940000
    5      C       0.7587040000     1.7241540000    -0.5931060000
    6      S       0.1138040000     0.3413540000    -1.4674060000
    7      C       1.1251040000     2.5099540000     1.8339940000
    8      H       0.9452040000     2.1242540000     2.8560940000
    9      H       0.5928040000     3.4801540000     1.7455940000
   10      H       2.2104040000     2.7258540000     1.7455940000
   11      C      -0.2844960000    -1.9534460000     0.0193940000
   12      H      -0.6537960000    -1.9531460000    -0.9955060000
   13      H       0.4853040000    -2.6572460000    -0.2607060000
   14      H      -1.1744960000    -2.4723460000     0.3432940000
   15      H       1.1598040000     2.5844540000    -1.1422060000
 ----------------------------------------------------------------

   10    -629.4073471105      5.25e-07  Convergence criterion met
 Total energy in the final basis set =     -629.4073471105
        RIMP2         total energy =      -630.5881930288 a.u.

                    Orbital Energies (a.u.)
 --------------------------------------------------------------

 Alpha MOs
 -- Occupied --
-91.9797 -11.2688 -11.2621 -11.2474 -11.2328 -11.2271 -11.2138  -8.9796
 -6.6605  -6.6600  -6.6594  -1.1624  -1.0545  -0.9952  -0.9457  -0.8816
 -0.7486  -0.7201  -0.6465  -0.5895  -0.5762  -0.5691  -0.5516  -0.5470
 -0.5124  -0.4777  -0.4640  -0.4444  -0.3376  -0.3028

          Ground-State Mulliken Net Atomic Charges

     Atom                 Charge (a.u.)
  ----------------------------------------
      1 C                     0.006605
      2 C                    -0.244684
      3 C                     0.035853
      4 H                     0.179768
      5 C                    -0.246253
      6 S                     0.000504
      7 C                    -0.271631
      8 H                     0.101984
      9 H                     0.106697
     10 H                     0.106241
     11 C                    -0.356098
     12 H                     0.110599
     13 H                     0.145610
     14 H                     0.129716
     15 H                     0.195089
  ----------------------------------------
  Sum of atomic charges =     0.000000

                    Cartesian Multipole Moments
 -----------------------------------------------------------------
    Charge (ESU x 10^10)
                -0.0000
    Dipole Moment (Debye)
         X       0.5267      Y       0.1722      Z       0.9681
       Tot       1.1154
    Quadrupole Moments (Debye-Ang)
        XX     -52.2080     XY       3.8109     YY     -44.0102
        XZ      -0.0535     YZ       1.2659     ZZ     -48.6756

 Total job time:  156.55s(wall), 154.97s(cpu)
        *  Thank you very much for using Q-Chem.  Have a nice day.  *
