 Q-Chem 5.4, Q-Chem, Inc., Pleasanton, CA (2021)
 Q-Chem 5.4.0 for Intel X86 EM64T Linux

User input:
--------------------------------------------------------------
$molecule
0 1
C	-0.586895	-0.237127	0.010180
C	0.161005	0.194673	1.109580
C	1.359505	0.886573	0.786880
H	-0.158395	0.010273	2.146280
C	1.550605	0.996873	-0.602320
S	0.229305	0.234073	-1.476620
C	2.301605	1.430473	1.824780
H	1.932905	1.217573	2.846880
H	2.422005	2.530373	1.736380
H	3.314405	0.984673	1.736380
C	-0.586895	-1.677827	0.010180
H	-0.586995	-1.678027	1.090180
H	0.232305	-2.381627	0.010280
H	-1.533995	-2.196727	0.010180
H	2.372705	1.471473	-1.151420
$end

$rem
JOBTYPE		SP
EXCHANGE	HF
CORRELATION	pRIMP2
BASIS		cc-pvtz
METHOD		rimp2
AUX_BASIS	rimp2-cc-pvtz
SOLVENT_METHOD	PCM
PURECART	11111
SYMMETRY	false
MEM_TOTAL	110000
SCF_CONVERGENCE = 6
THRESH=10
$end

$solvent
dielectric 4.90
$end
--------------------------------------------------------------

             Standard Nuclear Orientation (Angstroms)
    I     Atom           X                Y                Z
 ----------------------------------------------------------------
    1      C      -0.5868950000    -0.2371270000     0.0101800000
    2      C       0.1610050000     0.1946730000     1.1095800000
    3      C       1.3595050000     0.8865730000     0.7868800000
    4      H      -0.1583950000     0.0102730000     2.1462800000
    5      C       1.5506050000     0.9968730000    -0.6023200000
    6      S       0.2293050000     0.2340730000    -1.4766200000
    7      C       2.3016050000     1.4304730000     1.8247800000
    8      H       1.9329050000     1.2175730000     2.8468800000
    9      H       2.4220050000     2.5303730000     1.7363800000
   10      H       3.3144050000     0.9846730000     1.7363800000
   11      C      -0.5868950000    -1.6778270000     0.0101800000
   12      H      -0.5869950000    -1.6780270000     1.0901800000
   13      H       0.2323050000    -2.3816270000     0.0102800000
   14      H      -1.5339950000    -2.1967270000     0.0101800000
   15      H       2.3727050000     1.4714730000    -1.1514200000
 ----------------------------------------------------------------

   11    -629.3455817553      4.26e-07  Convergence criterion met
 Total energy in the final basis set =     -629.3455817553
        RIMP2         total energy =      -630.5370770462 a.u.

                    Orbital Energies (a.u.)
 --------------------------------------------------------------

 Alpha MOs
 -- Occupied --
-91.9730 -11.2845 -11.2560 -11.2491 -11.2413 -11.2296 -11.2058  -8.9739
 -6.6547  -6.6538  -6.6536  -1.1753  -1.0565  -1.0025  -0.9332  -0.8831
 -0.7484  -0.7361  -0.6443  -0.5898  -0.5848  -0.5705  -0.5522  -0.5432
 -0.5211  -0.4720  -0.4546  -0.4228  -0.3300  -0.3080

          Ground-State Mulliken Net Atomic Charges

     Atom                 Charge (a.u.)
  ----------------------------------------
      1 C                    -0.110400
      2 C                    -0.110895
      3 C                    -0.025344
      4 H                     0.181686
      5 C                    -0.177591
      6 S                     0.011343
      7 C                    -0.267748
      8 H                     0.101907
      9 H                     0.106688
     10 H                     0.104592
     11 C                    -0.351228
     12 H                     0.102705
     13 H                     0.135709
     14 H                     0.100823
     15 H                     0.197752
  ----------------------------------------
  Sum of atomic charges =     0.000000

                    Cartesian Multipole Moments
 -----------------------------------------------------------------
    Charge (ESU x 10^10)
                -0.0000
    Dipole Moment (Debye)
         X       2.5799      Y       0.3067      Z       2.3266
       Tot       3.4875
    Quadrupole Moments (Debye-Ang)
        XX     -47.8112     XY       3.9950     YY     -50.2497
        XZ      -0.6439     YZ      -0.8936     ZZ     -48.0394

 Total job time:  177.29s(wall), 176.13s(cpu)
        *  Thank you very much for using Q-Chem.  Have a nice day.  *
