 Q-Chem 5.4, Q-Chem, Inc., Pleasanton, CA (2021)
 Q-Chem 5.4.0 for Intel X86 EM64T Linux

User input:
--------------------------------------------------------------
$molecule
0 1
C	-0.341855	-0.485419	0.010945
C	0.089945	0.262481	1.110345
C	0.781945	1.460981	0.787645
H	-0.094455	-0.056919	2.147045
C	0.892245	1.652081	-0.601555
S	0.129345	0.330681	-1.475855
C	1.325845	2.402981	1.825545
H	1.113045	2.034381	2.847645
H	0.880145	3.415781	1.737145
H	2.425845	2.523381	1.737145
C	-0.341855	-1.926119	0.010945
H	0.352245	-1.926319	0.838345
H	0.285745	-2.629919	-0.515555
H	-1.067355	-2.445019	0.619745
H	1.366945	2.474081	-1.150655
$end

$rem
JOBTYPE		SP
EXCHANGE	HF
CORRELATION	pRIMP2
BASIS		cc-pvtz
METHOD		rimp2
AUX_BASIS	rimp2-cc-pvtz
SOLVENT_METHOD	PCM
PURECART	11111
SYMMETRY	false
MEM_TOTAL	110000
SCF_CONVERGENCE = 6
THRESH=10
$end

$solvent
dielectric 4.90
$end
--------------------------------------------------------------

             Standard Nuclear Orientation (Angstroms)
    I     Atom           X                Y                Z
 ----------------------------------------------------------------
    1      C      -0.3418550000    -0.4854190000     0.0109450000
    2      C       0.0899450000     0.2624810000     1.1103450000
    3      C       0.7819450000     1.4609810000     0.7876450000
    4      H      -0.0944550000    -0.0569190000     2.1470450000
    5      C       0.8922450000     1.6520810000    -0.6015550000
    6      S       0.1293450000     0.3306810000    -1.4758550000
    7      C       1.3258450000     2.4029810000     1.8255450000
    8      H       1.1130450000     2.0343810000     2.8476450000
    9      H       0.8801450000     3.4157810000     1.7371450000
   10      H       2.4258450000     2.5233810000     1.7371450000
   11      C      -0.3418550000    -1.9261190000     0.0109450000
   12      H       0.3522450000    -1.9263190000     0.8383450000
   13      H       0.2857450000    -2.6299190000    -0.5155550000
   14      H      -1.0673550000    -2.4450190000     0.6197450000
   15      H       1.3669450000     2.4740810000    -1.1506550000
 ----------------------------------------------------------------

   10    -629.4011897808      5.34e-07  Convergence criterion met
 Total energy in the final basis set =     -629.4011897808
        RIMP2         total energy =      -630.5834932636 a.u.

                    Orbital Energies (a.u.)
 --------------------------------------------------------------

 Alpha MOs
 -- Occupied --
-91.9776 -11.2751 -11.2571 -11.2478 -11.2315 -11.2275 -11.2141  -8.9775
 -6.6584  -6.6578  -6.6573  -1.1638  -1.0547  -0.9990  -0.9375  -0.8832
 -0.7430  -0.7239  -0.6463  -0.5896  -0.5758  -0.5727  -0.5559  -0.5431
 -0.5122  -0.4762  -0.4669  -0.4479  -0.3353  -0.2944

          Ground-State Mulliken Net Atomic Charges

     Atom                 Charge (a.u.)
  ----------------------------------------
      1 C                     0.022954
      2 C                    -0.253816
      3 C                     0.030390
      4 H                     0.175980
      5 C                    -0.255363
      6 S                     0.003330
      7 C                    -0.270690
      8 H                     0.101336
      9 H                     0.107294
     10 H                     0.106123
     11 C                    -0.389571
     12 H                     0.142918
     13 H                     0.160278
     14 H                     0.126409
     15 H                     0.192428
  ----------------------------------------
  Sum of atomic charges =     0.000000

                    Cartesian Multipole Moments
 -----------------------------------------------------------------
    Charge (ESU x 10^10)
                -0.0000
    Dipole Moment (Debye)
         X       1.2003      Y      -0.2345      Z       1.9987
       Tot       2.3432
    Quadrupole Moments (Debye-Ang)
        XX     -52.2934     XY       2.7595     YY     -44.8170
        XZ      -0.3010     YZ      -0.7392     ZZ     -48.5094

 Total job time:  161.42s(wall), 159.53s(cpu)
        *  Thank you very much for using Q-Chem.  Have a nice day.  *
