 Q-Chem 5.4, Q-Chem, Inc., Pleasanton, CA (2021)
 Q-Chem 5.4.0 for Intel X86 EM64T Linux

User input:
--------------------------------------------------------------
$molecule
0 1
C	-0.291374	-0.512744	0.013623
C	0.073626	0.269956	1.113023
C	0.658526	1.524156	0.790323
H	-0.082274	-0.064344	2.149723
C	0.751826	1.724156	-0.598877
S	0.106926	0.341356	-1.473177
C	1.118226	2.509956	1.828223
H	0.938326	2.124256	2.850323
H	0.585926	3.480156	1.739823
H	2.203526	2.725856	1.739823
C	-0.291374	-1.953444	0.013623
H	0.772226	-1.953644	0.201323
H	-0.149074	-2.657244	-0.793077
H	-0.455874	-2.472344	0.946323
H	1.152926	2.584456	-1.147977
$end

$rem
JOBTYPE		SP
EXCHANGE	HF
CORRELATION	pRIMP2
BASIS		cc-pvtz
METHOD		rimp2
AUX_BASIS	rimp2-cc-pvtz
SOLVENT_METHOD	PCM
PURECART	11111
SYMMETRY	false
MEM_TOTAL	110000
SCF_CONVERGENCE = 6
THRESH=10
$end

$solvent
dielectric 4.90
$end
--------------------------------------------------------------

             Standard Nuclear Orientation (Angstroms)
    I     Atom           X                Y                Z
 ----------------------------------------------------------------
    1      C      -0.2913740000    -0.5127440000     0.0136230000
    2      C       0.0736260000     0.2699560000     1.1130230000
    3      C       0.6585260000     1.5241560000     0.7903230000
    4      H      -0.0822740000    -0.0643440000     2.1497230000
    5      C       0.7518260000     1.7241560000    -0.5988770000
    6      S       0.1069260000     0.3413560000    -1.4731770000
    7      C       1.1182260000     2.5099560000     1.8282230000
    8      H       0.9383260000     2.1242560000     2.8503230000
    9      H       0.5859260000     3.4801560000     1.7398230000
   10      H       2.2035260000     2.7258560000     1.7398230000
   11      C      -0.2913740000    -1.9534440000     0.0136230000
   12      H       0.7722260000    -1.9536440000     0.2013230000
   13      H      -0.1490740000    -2.6572440000    -0.7930770000
   14      H      -0.4558740000    -2.4723440000     0.9463230000
   15      H       1.1529260000     2.5844560000    -1.1479770000
 ----------------------------------------------------------------

   10    -629.4136718940      6.63e-07  Convergence criterion met
 Total energy in the final basis set =     -629.4136718940
        RIMP2         total energy =      -630.5918609348 a.u.

                    Orbital Energies (a.u.)
 --------------------------------------------------------------

 Alpha MOs
 -- Occupied --
-91.9778 -11.2837 -11.2512 -11.2479 -11.2269 -11.2246 -11.2215  -8.9777
 -6.6587  -6.6581  -6.6575  -1.1630  -1.0565  -0.9975  -0.9398  -0.8825
 -0.7441  -0.7202  -0.6469  -0.5889  -0.5784  -0.5694  -0.5535  -0.5453
 -0.5082  -0.4901  -0.4643  -0.4568  -0.3383  -0.2877

          Ground-State Mulliken Net Atomic Charges

     Atom                 Charge (a.u.)
  ----------------------------------------
      1 C                     0.049095
      2 C                    -0.302078
      3 C                     0.053739
      4 H                     0.174795
      5 C                    -0.279007
      6 S                     0.001891
      7 C                    -0.270753
      8 H                     0.101550
      9 H                     0.107565
     10 H                     0.106654
     11 C                    -0.379810
     12 H                     0.151837
     13 H                     0.158822
     14 H                     0.133157
     15 H                     0.192544
  ----------------------------------------
  Sum of atomic charges =     0.000000

                    Cartesian Multipole Moments
 -----------------------------------------------------------------
    Charge (ESU x 10^10)
                -0.0000
    Dipole Moment (Debye)
         X       1.2073      Y      -0.6815      Z       1.5590
       Tot       2.0862
    Quadrupole Moments (Debye-Ang)
        XX     -53.3235     XY       2.0203     YY     -43.5735
        XZ       0.0707     YZ       0.1242     ZZ     -48.5300

 Total job time:  158.87s(wall), 156.52s(cpu)
        *  Thank you very much for using Q-Chem.  Have a nice day.  *
