 Q-Chem 5.4, Q-Chem, Inc., Pleasanton, CA (2021)
 Q-Chem 5.4.0 for Intel X86 EM64T Linux

User input:
--------------------------------------------------------------
$molecule
0 1
C	-0.113725	-0.566007	0.012353
C	0.036275	0.284493	1.111753
C	0.276575	1.647393	0.789053
H	-0.027825	-0.078707	2.148453
C	0.314975	1.864693	-0.600147
S	0.049975	0.362093	-1.474447
C	0.465475	2.718593	1.826953
H	0.391575	2.299393	2.849053
H	-0.299725	3.517893	1.738553
H	1.457975	3.207893	1.738553
C	-0.113725	-2.006707	0.012353
H	-0.941125	-2.006907	0.706453
H	0.412775	-2.710507	0.639953
H	-0.722525	-2.525607	-0.713147
H	0.479775	2.799393	-1.149247
$end

$rem
JOBTYPE		SP
EXCHANGE	HF
CORRELATION	pRIMP2
BASIS		cc-pvtz
METHOD		rimp2
AUX_BASIS	rimp2-cc-pvtz
SOLVENT_METHOD	PCM
PURECART	11111
SYMMETRY	false
MEM_TOTAL	110000
SCF_CONVERGENCE = 6
THRESH=10
$end

$solvent
dielectric 4.90
$end
--------------------------------------------------------------

   10    -629.4214439712      5.83e-07  Convergence criterion met
 Total energy in the final basis set =     -629.4214439712
        RIMP2         total energy =      -630.5990605724 a.u.
 Total job time:  157.75s(wall), 154.79s(cpu)
        *  Thank you very much for using Q-Chem.  Have a nice day.  *
 Q-Chem 5.4, Q-Chem, Inc., Pleasanton, CA (2021)
 Q-Chem 5.4.0 for Intel X86 EM64T Linux

User input:
--------------------------------------------------------------
$molecule
0 1
C	-0.113725	-0.566007	0.012353
C	0.036275	0.284493	1.111753
C	0.276575	1.647393	0.789053
H	-0.027825	-0.078707	2.148453
C	0.314975	1.864693	-0.600147
S	0.049975	0.362093	-1.474447
C	0.465475	2.718593	1.826953
H	0.391575	2.299393	2.849053
H	-0.299725	3.517893	1.738553
H	1.457975	3.207893	1.738553
C	-0.113725	-2.006707	0.012353
H	-0.941125	-2.006907	0.706453
H	0.412775	-2.710507	0.639953
H	-0.722525	-2.525607	-0.713147
H	0.479775	2.799393	-1.149247
$end

$rem
JOBTYPE		SP
EXCHANGE	HF
CORRELATION	pRIMP2
BASIS		cc-pvtz
METHOD		rimp2
AUX_BASIS	rimp2-cc-pvtz
SOLVENT_METHOD	PCM
PURECART	11111
SYMMETRY	false
MEM_TOTAL	110000
SCF_CONVERGENCE = 6
THRESH=10
$end

$solvent
dielectric 4.90
$end
--------------------------------------------------------------

             Standard Nuclear Orientation (Angstroms)
    I     Atom           X                Y                Z
 ----------------------------------------------------------------
    1      C      -0.1137250000    -0.5660070000     0.0123530000
    2      C       0.0362750000     0.2844930000     1.1117530000
    3      C       0.2765750000     1.6473930000     0.7890530000
    4      H      -0.0278250000    -0.0787070000     2.1484530000
    5      C       0.3149750000     1.8646930000    -0.6001470000
    6      S       0.0499750000     0.3620930000    -1.4744470000
    7      C       0.4654750000     2.7185930000     1.8269530000
    8      H       0.3915750000     2.2993930000     2.8490530000
    9      H      -0.2997250000     3.5178930000     1.7385530000
   10      H       1.4579750000     3.2078930000     1.7385530000
   11      C      -0.1137250000    -2.0067070000     0.0123530000
   12      H      -0.9411250000    -2.0069070000     0.7064530000
   13      H       0.4127750000    -2.7105070000     0.6399530000
   14      H      -0.7225250000    -2.5256070000    -0.7131470000
   15      H       0.4797750000     2.7993930000    -1.1492470000
 ----------------------------------------------------------------

   10    -629.4214439712      5.83e-07  Convergence criterion met
 Total energy in the final basis set =     -629.4214439712
        RIMP2         total energy =      -630.5990605724 a.u.

                    Orbital Energies (a.u.)
 --------------------------------------------------------------

 Alpha MOs
 -- Occupied --
-91.9770 -11.2806 -11.2528 -11.2473 -11.2282 -11.2269 -11.2184  -8.9769
 -6.6579  -6.6573  -6.6567  -1.1603  -1.0547  -0.9984  -0.9408  -0.8837
 -0.7427  -0.7211  -0.6494  -0.5879  -0.5746  -0.5654  -0.5600  -0.5436
 -0.5095  -0.4906  -0.4647  -0.4483  -0.3375  -0.2941

          Ground-State Mulliken Net Atomic Charges

     Atom                 Charge (a.u.)
  ----------------------------------------
      1 C                     0.063210
      2 C                    -0.295806
      3 C                     0.044698
      4 H                     0.176636
      5 C                    -0.266180
      6 S                    -0.001728
      7 C                    -0.274865
      8 H                     0.101172
      9 H                     0.107088
     10 H                     0.107315
     11 C                    -0.377091
     12 H                     0.133307
     13 H                     0.152769
     14 H                     0.137111
     15 H                     0.192366
  ----------------------------------------
  Sum of atomic charges =     0.000000

                    Cartesian Multipole Moments
 -----------------------------------------------------------------
    Charge (ESU x 10^10)
                -0.0000
    Dipole Moment (Debye)
         X      -0.3285      Y      -0.4052      Z       1.8894
       Tot       1.9601
    Quadrupole Moments (Debye-Ang)
        XX     -53.7244     XY       2.6655     YY     -42.3204
        XZ       0.3004     YZ      -0.7176     ZZ     -48.6678

 Total job time:  157.58s(wall), 155.47s(cpu)
        *  Thank you very much for using Q-Chem.  Have a nice day.  *
