 Q-Chem 5.4, Q-Chem, Inc., Pleasanton, CA (2021)
 Q-Chem 5.4.0 for Intel X86 EM64T Linux

User input:
--------------------------------------------------------------
$molecule
0 1
C	-0.119740	-0.566010	0.019521
C	0.030260	0.284490	1.118921
C	0.270560	1.647390	0.796221
H	-0.033840	-0.078710	2.155621
C	0.308960	1.864690	-0.592979
S	0.043960	0.362090	-1.467279
C	0.459460	2.718590	1.834121
H	0.385560	2.299390	2.856221
H	-0.305740	3.517890	1.745721
H	1.451960	3.207890	1.745721
C	-0.119740	-2.006710	0.019521
H	0.420360	-2.006410	-0.915679
H	0.589660	-2.710510	0.429121
H	-0.939940	-2.525610	-0.454079
H	0.473760	2.799390	-1.142079
$end

$rem
JOBTYPE		SP
EXCHANGE	HF
CORRELATION	pRIMP2
BASIS		cc-pvtz
METHOD		rimp2
AUX_BASIS	rimp2-cc-pvtz
SOLVENT_METHOD	PCM
PURECART	11111
SYMMETRY	false
MEM_TOTAL	110000
SCF_CONVERGENCE = 6
THRESH=10
$end

$solvent
dielectric 4.90
$end
--------------------------------------------------------------

   10    -629.4192479826      6.02e-07  Convergence criterion met
 Total energy in the final basis set =     -629.4192479826
        RIMP2         total energy =      -630.5965824981 a.u.
 Total job time:  157.44s(wall), 155.66s(cpu)
        *  Thank you very much for using Q-Chem.  Have a nice day.  *
 Q-Chem 5.4, Q-Chem, Inc., Pleasanton, CA (2021)
 Q-Chem 5.4.0 for Intel X86 EM64T Linux

User input:
--------------------------------------------------------------
$molecule
0 1
C	-0.119740	-0.566010	0.019521
C	0.030260	0.284490	1.118921
C	0.270560	1.647390	0.796221
H	-0.033840	-0.078710	2.155621
C	0.308960	1.864690	-0.592979
S	0.043960	0.362090	-1.467279
C	0.459460	2.718590	1.834121
H	0.385560	2.299390	2.856221
H	-0.305740	3.517890	1.745721
H	1.451960	3.207890	1.745721
C	-0.119740	-2.006710	0.019521
H	0.420360	-2.006410	-0.915679
H	0.589660	-2.710510	0.429121
H	-0.939940	-2.525610	-0.454079
H	0.473760	2.799390	-1.142079
$end

$rem
JOBTYPE		SP
EXCHANGE	HF
CORRELATION	pRIMP2
BASIS		cc-pvtz
METHOD		rimp2
AUX_BASIS	rimp2-cc-pvtz
SOLVENT_METHOD	PCM
PURECART	11111
SYMMETRY	false
MEM_TOTAL	110000
SCF_CONVERGENCE = 6
THRESH=10
$end

$solvent
dielectric 4.90
$end
--------------------------------------------------------------

             Standard Nuclear Orientation (Angstroms)
    I     Atom           X                Y                Z
 ----------------------------------------------------------------
    1      C      -0.1197400000    -0.5660100000     0.0195210000
    2      C       0.0302600000     0.2844900000     1.1189210000
    3      C       0.2705600000     1.6473900000     0.7962210000
    4      H      -0.0338400000    -0.0787100000     2.1556210000
    5      C       0.3089600000     1.8646900000    -0.5929790000
    6      S       0.0439600000     0.3620900000    -1.4672790000
    7      C       0.4594600000     2.7185900000     1.8341210000
    8      H       0.3855600000     2.2993900000     2.8562210000
    9      H      -0.3057400000     3.5178900000     1.7457210000
   10      H       1.4519600000     3.2078900000     1.7457210000
   11      C      -0.1197400000    -2.0067100000     0.0195210000
   12      H       0.4203600000    -2.0064100000    -0.9156790000
   13      H       0.5896600000    -2.7105100000     0.4291210000
   14      H      -0.9399400000    -2.5256100000    -0.4540790000
   15      H       0.4737600000     2.7993900000    -1.1420790000
 ----------------------------------------------------------------

   10    -629.4192479826      6.02e-07  Convergence criterion met
 Total energy in the final basis set =     -629.4192479826
        RIMP2         total energy =      -630.5965824981 a.u.

                    Orbital Energies (a.u.)
 --------------------------------------------------------------

 Alpha MOs
 -- Occupied --
-91.9791 -11.2770 -11.2564 -11.2468 -11.2285 -11.2267 -11.2167  -8.9791
 -6.6600  -6.6595  -6.6589  -1.1612  -1.0555  -0.9953  -0.9458  -0.8815
 -0.7473  -0.7186  -0.6486  -0.5901  -0.5760  -0.5651  -0.5536  -0.5475
 -0.5091  -0.4871  -0.4647  -0.4478  -0.3390  -0.2992

          Ground-State Mulliken Net Atomic Charges

     Atom                 Charge (a.u.)
  ----------------------------------------
      1 C                     0.055477
      2 C                    -0.282868
      3 C                     0.047147
      4 H                     0.180362
      5 C                    -0.261269
      6 S                    -0.003656
      7 C                    -0.272994
      8 H                     0.101672
      9 H                     0.107202
     10 H                     0.106939
     11 C                    -0.372690
     12 H                     0.120393
     13 H                     0.152297
     14 H                     0.127155
     15 H                     0.194834
  ----------------------------------------
  Sum of atomic charges =     0.000000

                    Cartesian Multipole Moments
 -----------------------------------------------------------------
    Charge (ESU x 10^10)
                -0.0000
    Dipole Moment (Debye)
         X       0.5785      Y      -0.1302      Z       0.9019
       Tot       1.0794
    Quadrupole Moments (Debye-Ang)
        XX     -53.6980     XY       0.6709     YY     -42.3796
        XZ       0.3467     YZ       1.3376     ZZ     -48.7687

 Total job time:  156.23s(wall), 154.82s(cpu)
        *  Thank you very much for using Q-Chem.  Have a nice day.  *
