 Q-Chem 5.4, Q-Chem, Inc., Pleasanton, CA (2021)
 Q-Chem 5.4.0 for Intel X86 EM64T Linux

User input:
--------------------------------------------------------------
$molecule
0 1
C	-0.515556	-0.333972	0.012353
C	0.146044	0.221128	1.111753
C	1.206144	1.110628	0.789053
H	-0.136456	-0.015972	2.148453
C	1.375244	1.252428	-0.600147
S	0.206344	0.271728	-1.474447
C	2.039444	1.809828	1.826953
H	1.713344	1.536228	2.849053
H	1.967044	2.914028	1.738553
H	3.114244	1.546728	1.738553
C	-0.515556	-1.774672	0.012353
H	-1.342956	-1.774872	0.706453
H	0.010944	-2.478472	0.639953
H	-1.124356	-2.293572	-0.713147
H	2.102344	1.862628	-1.149247
$end

$rem
JOBTYPE		SP
EXCHANGE	HF
CORRELATION	pRIMP2
BASIS		cc-pvtz
METHOD		rimp2
AUX_BASIS	rimp2-cc-pvtz
SOLVENT_METHOD	PCM
PURECART	11111
SYMMETRY	false
MEM_TOTAL	110000
SCF_CONVERGENCE = 6
THRESH=10
$end

$solvent
dielectric 4.90
$end
--------------------------------------------------------------

             Standard Nuclear Orientation (Angstroms)
    I     Atom           X                Y                Z
 ----------------------------------------------------------------
    1      C      -0.5155560000    -0.3339720000     0.0123530000
    2      C       0.1460440000     0.2211280000     1.1117530000
    3      C       1.2061440000     1.1106280000     0.7890530000
    4      H      -0.1364560000    -0.0159720000     2.1484530000
    5      C       1.3752440000     1.2524280000    -0.6001470000
    6      S       0.2063440000     0.2717280000    -1.4744470000
    7      C       2.0394440000     1.8098280000     1.8269530000
    8      H       1.7133440000     1.5362280000     2.8490530000
    9      H       1.9670440000     2.9140280000     1.7385530000
   10      H       3.1142440000     1.5467280000     1.7385530000
   11      C      -0.5155560000    -1.7746720000     0.0123530000
   12      H      -1.3429560000    -1.7748720000     0.7064530000
   13      H       0.0109440000    -2.4784720000     0.6399530000
   14      H      -1.1243560000    -2.2935720000    -0.7131470000
   15      H       2.1023440000     1.8626280000    -1.1492470000
 ----------------------------------------------------------------

   10    -629.3694174471      9.38e-07  Convergence criterion met
 Total energy in the final basis set =     -629.3694174471
        RIMP2         total energy =      -630.5581771939 a.u.

                    Orbital Energies (a.u.)
 --------------------------------------------------------------

 Alpha MOs
 -- Occupied --
-91.9716 -11.2733 -11.2538 -11.2491 -11.2464 -11.2285 -11.2091  -8.9725
 -6.6534  -6.6525  -6.6522  -1.1678  -1.0540  -0.9984  -0.9383  -0.8834
 -0.7465  -0.7282  -0.6453  -0.5844  -0.5807  -0.5655  -0.5556  -0.5425
 -0.5178  -0.4865  -0.4601  -0.4252  -0.3368  -0.2941

          Ground-State Mulliken Net Atomic Charges

     Atom                 Charge (a.u.)
  ----------------------------------------
      1 C                    -0.058631
      2 C                    -0.179815
      3 C                     0.001778
      4 H                     0.181370
      5 C                    -0.204277
      6 S                     0.005875
      7 C                    -0.269148
      8 H                     0.101548
      9 H                     0.106877
     10 H                     0.105649
     11 C                    -0.384459
     12 H                     0.120353
     13 H                     0.151874
     14 H                     0.126642
     15 H                     0.194364
  ----------------------------------------
  Sum of atomic charges =     0.000000

                    Cartesian Multipole Moments
 -----------------------------------------------------------------
    Charge (ESU x 10^10)
                -0.0000
    Dipole Moment (Debye)
         X       1.3355      Y       0.1640      Z       2.0764
       Tot       2.4743
    Quadrupole Moments (Debye-Ang)
        XX     -48.8990     XY       5.4737     YY     -48.2657
        XZ       0.0655     YZ      -0.7033     ZZ     -48.1530

 Total job time:  159.07s(wall), 157.47s(cpu)
        *  Thank you very much for using Q-Chem.  Have a nice day.  *
