 Q-Chem 5.4, Q-Chem, Inc., Pleasanton, CA (2021)
 Q-Chem 5.4.0 for Intel X86 EM64T Linux

User input:
--------------------------------------------------------------
$molecule
0 1
C	-0.227522	-0.535395	0.013104
C	0.067878	0.276105	1.112504
C	0.541178	1.576505	0.789804
H	-0.058222	-0.070395	2.149204
C	0.616678	1.783905	-0.599396
S	0.094778	0.350205	-1.473696
C	0.913278	2.598705	1.827704
H	0.767678	2.198705	2.849804
H	0.298478	3.518705	1.739304
H	1.975678	2.908305	1.739304
C	-0.227522	-1.976095	0.013104
H	-1.162922	-1.976295	0.553004
H	0.181978	-2.679895	0.722604
H	-0.701122	-2.494995	-0.807096
H	0.941378	2.675905	-1.148496
$end

$rem
JOBTYPE		SP
EXCHANGE	HF
CORRELATION	pRIMP2
BASIS		cc-pvtz
METHOD		rimp2
AUX_BASIS	rimp2-cc-pvtz
SOLVENT_METHOD	PCM
PURECART	11111
SYMMETRY	false
MEM_TOTAL	110000
SCF_CONVERGENCE = 6
THRESH=10
$end

$solvent
dielectric 4.90
$end
--------------------------------------------------------------

   10    -629.4138030145      5.87e-07  Convergence criterion met
 Total energy in the final basis set =     -629.4138030145
        RIMP2         total energy =      -630.5929462431 a.u.
 Total job time:  158.44s(wall), 156.12s(cpu)
        *  Thank you very much for using Q-Chem.  Have a nice day.  *
 Q-Chem 5.4, Q-Chem, Inc., Pleasanton, CA (2021)
 Q-Chem 5.4.0 for Intel X86 EM64T Linux

User input:
--------------------------------------------------------------
$molecule
0 1
C	-0.227522	-0.535395	0.013104
C	0.067878	0.276105	1.112504
C	0.541178	1.576505	0.789804
H	-0.058222	-0.070395	2.149204
C	0.616678	1.783905	-0.599396
S	0.094778	0.350205	-1.473696
C	0.913278	2.598705	1.827704
H	0.767678	2.198705	2.849804
H	0.298478	3.518705	1.739304
H	1.975678	2.908305	1.739304
C	-0.227522	-1.976095	0.013104
H	-1.162922	-1.976295	0.553004
H	0.181978	-2.679895	0.722604
H	-0.701122	-2.494995	-0.807096
H	0.941378	2.675905	-1.148496
$end

$rem
JOBTYPE		SP
EXCHANGE	HF
CORRELATION	pRIMP2
BASIS		cc-pvtz
METHOD		rimp2
AUX_BASIS	rimp2-cc-pvtz
SOLVENT_METHOD	PCM
PURECART	11111
SYMMETRY	false
MEM_TOTAL	110000
SCF_CONVERGENCE = 6
THRESH=10
$end

$solvent
dielectric 4.90
$end
--------------------------------------------------------------

             Standard Nuclear Orientation (Angstroms)
    I     Atom           X                Y                Z
 ----------------------------------------------------------------
    1      C      -0.2275220000    -0.5353950000     0.0131040000
    2      C       0.0678780000     0.2761050000     1.1125040000
    3      C       0.5411780000     1.5765050000     0.7898040000
    4      H      -0.0582220000    -0.0703950000     2.1492040000
    5      C       0.6166780000     1.7839050000    -0.5993960000
    6      S       0.0947780000     0.3502050000    -1.4736960000
    7      C       0.9132780000     2.5987050000     1.8277040000
    8      H       0.7676780000     2.1987050000     2.8498040000
    9      H       0.2984780000     3.5187050000     1.7393040000
   10      H       1.9756780000     2.9083050000     1.7393040000
   11      C      -0.2275220000    -1.9760950000     0.0131040000
   12      H      -1.1629220000    -1.9762950000     0.5530040000
   13      H       0.1819780000    -2.6798950000     0.7226040000
   14      H      -0.7011220000    -2.4949950000    -0.8070960000
   15      H       0.9413780000     2.6759050000    -1.1484960000
 ----------------------------------------------------------------

   10    -629.4138030145      5.87e-07  Convergence criterion met
 Total energy in the final basis set =     -629.4138030145
        RIMP2         total energy =      -630.5929462431 a.u.

                    Orbital Energies (a.u.)
 --------------------------------------------------------------

 Alpha MOs
 -- Occupied --
-91.9766 -11.2785 -11.2538 -11.2474 -11.2288 -11.2269 -11.2175  -8.9766
 -6.6575  -6.6569  -6.6564  -1.1607  -1.0546  -0.9978  -0.9411  -0.8834
 -0.7432  -0.7210  -0.6487  -0.5861  -0.5747  -0.5652  -0.5591  -0.5439
 -0.5107  -0.4922  -0.4620  -0.4485  -0.3375  -0.2914

          Ground-State Mulliken Net Atomic Charges

     Atom                 Charge (a.u.)
  ----------------------------------------
      1 C                     0.046978
      2 C                    -0.301139
      3 C                     0.049646
      4 H                     0.175838
      5 C                    -0.263471
      6 S                     0.002662
      7 C                    -0.272995
      8 H                     0.101300
      9 H                     0.107069
     10 H                     0.107079
     11 C                    -0.375642
     12 H                     0.135092
     13 H                     0.160132
     14 H                     0.135637
     15 H                     0.191815
  ----------------------------------------
  Sum of atomic charges =     0.000000

                    Cartesian Multipole Moments
 -----------------------------------------------------------------
    Charge (ESU x 10^10)
                -0.0000
    Dipole Moment (Debye)
         X      -0.1650      Y      -0.4025      Z       1.8095
       Tot       1.8611
    Quadrupole Moments (Debye-Ang)
        XX     -52.9850     XY       4.1437     YY     -43.1707
        XZ       0.2825     YZ      -0.5464     ZZ     -48.5492

 Total job time:  158.28s(wall), 156.44s(cpu)
        *  Thank you very much for using Q-Chem.  Have a nice day.  *
