 Q-Chem 5.4, Q-Chem, Inc., Pleasanton, CA (2021)
 Q-Chem 5.4.0 for Intel X86 EM64T Linux

User input:
--------------------------------------------------------------
$molecule
0 1
C	-0.433841	-0.417594	0.010669
C	0.121259	0.243906	1.110069
C	1.010859	1.304106	0.787369
H	-0.115741	-0.038594	2.146769
C	1.152759	1.473106	-0.601831
S	0.171959	0.304306	-1.476131
C	1.710059	2.137306	1.825269
H	1.436459	1.811306	2.847369
H	1.447059	3.212106	1.736869
H	2.814259	2.064906	1.736869
C	-0.433841	-1.858294	0.010669
H	-0.803341	-1.858494	1.025469
H	0.335959	-2.562094	0.290869
H	-1.323841	-2.377194	-0.313231
H	1.762859	2.200206	-1.150931
$end

$rem
JOBTYPE		SP
EXCHANGE	HF
CORRELATION	pRIMP2
BASIS		cc-pvtz
METHOD		rimp2
AUX_BASIS	rimp2-cc-pvtz
SOLVENT_METHOD	PCM
PURECART	11111
SYMMETRY	false
MEM_TOTAL	110000
SCF_CONVERGENCE = 6
THRESH=10
$end

$solvent
dielectric 4.90
$end
--------------------------------------------------------------

             Standard Nuclear Orientation (Angstroms)
    I     Atom           X                Y                Z
 ----------------------------------------------------------------
    1      C      -0.4338410000    -0.4175940000     0.0106690000
    2      C       0.1212590000     0.2439060000     1.1100690000
    3      C       1.0108590000     1.3041060000     0.7873690000
    4      H      -0.1157410000    -0.0385940000     2.1467690000
    5      C       1.1527590000     1.4731060000    -0.6018310000
    6      S       0.1719590000     0.3043060000    -1.4761310000
    7      C       1.7100590000     2.1373060000     1.8252690000
    8      H       1.4364590000     1.8113060000     2.8473690000
    9      H       1.4470590000     3.2121060000     1.7368690000
   10      H       2.8142590000     2.0649060000     1.7368690000
   11      C      -0.4338410000    -1.8582940000     0.0106690000
   12      H      -0.8033410000    -1.8584940000     1.0254690000
   13      H       0.3359590000    -2.5620940000     0.2908690000
   14      H      -1.3238410000    -2.3771940000    -0.3132310000
   15      H       1.7628590000     2.2002060000    -1.1509310000
 ----------------------------------------------------------------

   10    -629.3920866316      6.58e-07  Convergence criterion met
 Total energy in the final basis set =     -629.3920866316
        RIMP2         total energy =      -630.5770169070 a.u.

                    Orbital Energies (a.u.)
 --------------------------------------------------------------

 Alpha MOs
 -- Occupied --
-91.9727 -11.2692 -11.2614 -11.2483 -11.2434 -11.2283 -11.2113  -8.9733
 -6.6542  -6.6534  -6.6531  -1.1657  -1.0537  -0.9995  -0.9377  -0.8842
 -0.7445  -0.7280  -0.6464  -0.5862  -0.5816  -0.5685  -0.5559  -0.5421
 -0.5164  -0.4782  -0.4635  -0.4291  -0.3373  -0.3039

          Ground-State Mulliken Net Atomic Charges

     Atom                 Charge (a.u.)
  ----------------------------------------
      1 C                    -0.026162
      2 C                    -0.215407
      3 C                     0.019908
      4 H                     0.178912
      5 C                    -0.222665
      6 S                    -0.000266
      7 C                    -0.268981
      8 H                     0.101423
      9 H                     0.106868
     10 H                     0.106206
     11 C                    -0.355933
     12 H                     0.110239
     13 H                     0.150922
     14 H                     0.120166
     15 H                     0.194770
  ----------------------------------------
  Sum of atomic charges =     0.000000

                    Cartesian Multipole Moments
 -----------------------------------------------------------------
    Charge (ESU x 10^10)
                -0.0000
    Dipole Moment (Debye)
         X       1.1642      Y       0.2536      Z       2.2080
       Tot       2.5090
    Quadrupole Moments (Debye-Ang)
        XX     -50.2475     XY       4.7964     YY     -46.4564
        XZ      -0.0464     YZ      -1.0657     ZZ     -48.6009

 Total job time:  159.14s(wall), 156.11s(cpu)
        *  Thank you very much for using Q-Chem.  Have a nice day.  *
