 Q-Chem 5.4, Q-Chem, Inc., Pleasanton, CA (2021)
 Q-Chem 5.4.0 for Intel X86 EM64T Linux

User input:
--------------------------------------------------------------
$molecule
0 1
C	-0.290255	-0.512744	0.018379
C	0.074745	0.269956	1.117779
C	0.659645	1.524156	0.795079
H	-0.081155	-0.064344	2.154479
C	0.752945	1.724156	-0.594121
S	0.108045	0.341356	-1.468421
C	1.119345	2.509956	1.832979
H	0.939445	2.124256	2.855079
H	0.587045	3.480156	1.744579
H	2.204645	2.725856	1.744579
C	-0.290255	-1.953444	0.018379
H	0.404045	-1.953644	-0.808921
H	-0.917755	-2.657244	-0.508221
H	0.435345	-2.472344	0.627179
H	1.154045	2.584456	-1.143221
$end

$rem
JOBTYPE		SP
EXCHANGE	HF
CORRELATION	pRIMP2
BASIS		cc-pvtz
METHOD		rimp2
AUX_BASIS	rimp2-cc-pvtz
SOLVENT_METHOD	PCM
PURECART	11111
SYMMETRY	false
MEM_TOTAL	110000
SCF_CONVERGENCE = 6
THRESH=10
$end

$solvent
dielectric 4.90
$end
--------------------------------------------------------------

             Standard Nuclear Orientation (Angstroms)
    I     Atom           X                Y                Z
 ----------------------------------------------------------------
    1      C      -0.2902550000    -0.5127440000     0.0183790000
    2      C       0.0747450000     0.2699560000     1.1177790000
    3      C       0.6596450000     1.5241560000     0.7950790000
    4      H      -0.0811550000    -0.0643440000     2.1544790000
    5      C       0.7529450000     1.7241560000    -0.5941210000
    6      S       0.1080450000     0.3413560000    -1.4684210000
    7      C       1.1193450000     2.5099560000     1.8329790000
    8      H       0.9394450000     2.1242560000     2.8550790000
    9      H       0.5870450000     3.4801560000     1.7445790000
   10      H       2.2046450000     2.7258560000     1.7445790000
   11      C      -0.2902550000    -1.9534440000     0.0183790000
   12      H       0.4040450000    -1.9536440000    -0.8089210000
   13      H      -0.9177550000    -2.6572440000    -0.5082210000
   14      H       0.4353450000    -2.4723440000     0.6271790000
   15      H       1.1540450000     2.5844560000    -1.1432210000
 ----------------------------------------------------------------

   10    -629.4102725918      6.15e-07  Convergence criterion met
 Total energy in the final basis set =     -629.4102725918
        RIMP2         total energy =      -630.5893943723 a.u.

                    Orbital Energies (a.u.)
 --------------------------------------------------------------

 Alpha MOs
 -- Occupied --
-91.9758 -11.2759 -11.2579 -11.2470 -11.2312 -11.2270 -11.2162  -8.9763
 -6.6573  -6.6567  -6.6561  -1.1632  -1.0560  -0.9950  -0.9443  -0.8809
 -0.7478  -0.7199  -0.6465  -0.5906  -0.5777  -0.5656  -0.5512  -0.5480
 -0.5093  -0.4886  -0.4632  -0.4474  -0.3390  -0.2961

          Ground-State Mulliken Net Atomic Charges

     Atom                 Charge (a.u.)
  ----------------------------------------
      1 C                     0.046737
      2 C                    -0.295623
      3 C                     0.053734
      4 H                     0.179721
      5 C                    -0.256511
      6 S                    -0.005060
      7 C                    -0.270924
      8 H                     0.101623
      9 H                     0.107560
     10 H                     0.106594
     11 C                    -0.375435
     12 H                     0.131384
     13 H                     0.145183
     14 H                     0.137449
     15 H                     0.193566
  ----------------------------------------
  Sum of atomic charges =     0.000000

                    Cartesian Multipole Moments
 -----------------------------------------------------------------
    Charge (ESU x 10^10)
                -0.0000
    Dipole Moment (Debye)
         X       1.1013      Y      -0.1979      Z       1.0280
       Tot       1.5194
    Quadrupole Moments (Debye-Ang)
        XX     -52.7933     XY       2.5466     YY     -43.9198
        XZ       0.4766     YZ       1.3570     ZZ     -48.6198

 Total job time:  158.02s(wall), 156.72s(cpu)
        *  Thank you very much for using Q-Chem.  Have a nice day.  *
