 Q-Chem 5.4, Q-Chem, Inc., Pleasanton, CA (2021)
 Q-Chem 5.4.0 for Intel X86 EM64T Linux

User input:
--------------------------------------------------------------
$molecule
0 1
C	-0.524005	-0.333972	0.012832
C	0.137595	0.221128	1.112232
C	1.197695	1.110628	0.789532
H	-0.144905	-0.015972	2.148932
C	1.366795	1.252428	-0.599668
S	0.197895	0.271728	-1.473968
C	2.030995	1.809828	1.827432
H	1.704895	1.536228	2.849532
H	1.958595	2.914028	1.739032
H	3.105795	1.546728	1.739032
C	-0.524005	-1.774672	0.012832
H	0.490795	-1.774872	0.382332
H	-0.243805	-2.478472	-0.756968
H	-0.847905	-2.293572	0.902832
H	2.093895	1.862628	-1.148768
$end

$rem
JOBTYPE		SP
EXCHANGE	HF
CORRELATION	pRIMP2
BASIS		cc-pvtz
METHOD		rimp2
AUX_BASIS	rimp2-cc-pvtz
SOLVENT_METHOD	PCM
PURECART	11111
SYMMETRY	false
MEM_TOTAL	110000
SCF_CONVERGENCE = 6
THRESH=10
$end

$solvent
dielectric 4.90
$end
--------------------------------------------------------------

             Standard Nuclear Orientation (Angstroms)
    I     Atom           X                Y                Z
 ----------------------------------------------------------------
    1      C      -0.5240050000    -0.3339720000     0.0128320000
    2      C       0.1375950000     0.2211280000     1.1122320000
    3      C       1.1976950000     1.1106280000     0.7895320000
    4      H      -0.1449050000    -0.0159720000     2.1489320000
    5      C       1.3667950000     1.2524280000    -0.5996680000
    6      S       0.1978950000     0.2717280000    -1.4739680000
    7      C       2.0309950000     1.8098280000     1.8274320000
    8      H       1.7048950000     1.5362280000     2.8495320000
    9      H       1.9585950000     2.9140280000     1.7390320000
   10      H       3.1057950000     1.5467280000     1.7390320000
   11      C      -0.5240050000    -1.7746720000     0.0128320000
   12      H       0.4907950000    -1.7748720000     0.3823320000
   13      H      -0.2438050000    -2.4784720000    -0.7569680000
   14      H      -0.8479050000    -2.2935720000     0.9028320000
   15      H       2.0938950000     1.8626280000    -1.1487680000
 ----------------------------------------------------------------

   10    -629.3685180357      7.38e-07  Convergence criterion met
 Total energy in the final basis set =     -629.3685180357
        RIMP2         total energy =      -630.5576878135 a.u.

                    Orbital Energies (a.u.)
 --------------------------------------------------------------

 Alpha MOs
 -- Occupied --
-91.9785 -11.2673 -11.2665 -11.2501 -11.2355 -11.2285 -11.2140  -8.9787
 -6.6596  -6.6589  -6.6585  -1.1719  -1.0573  -0.9991  -0.9360  -0.8820
 -0.7473  -0.7266  -0.6446  -0.5892  -0.5813  -0.5711  -0.5536  -0.5456
 -0.5123  -0.4843  -0.4581  -0.4501  -0.3364  -0.2868

          Ground-State Mulliken Net Atomic Charges

     Atom                 Charge (a.u.)
  ----------------------------------------
      1 C                    -0.039862
      2 C                    -0.192977
      3 C                     0.006876
      4 H                     0.179157
      5 C                    -0.236887
      6 S                     0.018348
      7 C                    -0.267875
      8 H                     0.102206
      9 H                     0.107448
     10 H                     0.104735
     11 C                    -0.378858
     12 H                     0.133992
     13 H                     0.152221
     14 H                     0.115805
     15 H                     0.195671
  ----------------------------------------
  Sum of atomic charges =     0.000000

                    Cartesian Multipole Moments
 -----------------------------------------------------------------
    Charge (ESU x 10^10)
                -0.0000
    Dipole Moment (Debye)
         X       2.0993      Y      -0.2111      Z       1.7015
       Tot       2.7105
    Quadrupole Moments (Debye-Ang)
        XX     -50.2628     XY       3.6800     YY     -48.1104
        XZ      -0.1944     YZ      -0.2884     ZZ     -47.9409

 Total job time:  169.81s(wall), 161.23s(cpu)
        *  Thank you very much for using Q-Chem.  Have a nice day.  *
