 Q-Chem 5.4, Q-Chem, Inc., Pleasanton, CA (2021)
 Q-Chem 5.4.0 for Intel X86 EM64T Linux

User input:
--------------------------------------------------------------
$molecule
0 1
C	-0.343539	-0.485421	0.017231
C	0.088261	0.262479	1.116631
C	0.780261	1.460979	0.793931
H	-0.096139	-0.056921	2.153331
C	0.890561	1.652079	-0.595269
S	0.127661	0.330679	-1.469569
C	1.324161	2.402979	1.831831
H	1.111361	2.034379	2.853931
H	0.878461	3.415779	1.743431
H	2.424161	2.523379	1.743431
C	-0.343539	-1.926121	0.017231
H	0.671361	-1.925821	-0.352069
H	-0.063439	-2.629921	0.787031
H	-0.667439	-2.445021	-0.872769
H	1.365261	2.474079	-1.144369
$end

$rem
JOBTYPE		SP
EXCHANGE	HF
CORRELATION	pRIMP2
BASIS		cc-pvtz
METHOD		rimp2
AUX_BASIS	rimp2-cc-pvtz
SOLVENT_METHOD	PCM
PURECART	11111
SYMMETRY	false
MEM_TOTAL	110000
SCF_CONVERGENCE = 6
THRESH=10
$end

$solvent
dielectric 4.90
$end
--------------------------------------------------------------

   10    -629.4079428266      6.95e-07  Convergence criterion met
 Total energy in the final basis set =     -629.4079428266
        RIMP2         total energy =      -630.5868398137 a.u.
 Total job time:  158.30s(wall), 157.50s(cpu)
        *  Thank you very much for using Q-Chem.  Have a nice day.  *
 Q-Chem 5.4, Q-Chem, Inc., Pleasanton, CA (2021)
 Q-Chem 5.4.0 for Intel X86 EM64T Linux

User input:
--------------------------------------------------------------
$molecule
0 1
C	-0.343539	-0.485421	0.017231
C	0.088261	0.262479	1.116631
C	0.780261	1.460979	0.793931
H	-0.096139	-0.056921	2.153331
C	0.890561	1.652079	-0.595269
S	0.127661	0.330679	-1.469569
C	1.324161	2.402979	1.831831
H	1.111361	2.034379	2.853931
H	0.878461	3.415779	1.743431
H	2.424161	2.523379	1.743431
C	-0.343539	-1.926121	0.017231
H	0.671361	-1.925821	-0.352069
H	-0.063439	-2.629921	0.787031
H	-0.667439	-2.445021	-0.872769
H	1.365261	2.474079	-1.144369
$end

$rem
JOBTYPE		SP
EXCHANGE	HF
CORRELATION	pRIMP2
BASIS		cc-pvtz
METHOD		rimp2
AUX_BASIS	rimp2-cc-pvtz
SOLVENT_METHOD	PCM
PURECART	11111
SYMMETRY	false
MEM_TOTAL	110000
SCF_CONVERGENCE = 6
THRESH=10
$end

$solvent
dielectric 4.90
$end
--------------------------------------------------------------

             Standard Nuclear Orientation (Angstroms)
    I     Atom           X                Y                Z
 ----------------------------------------------------------------
    1      C      -0.3435390000    -0.4854210000     0.0172310000
    2      C       0.0882610000     0.2624790000     1.1166310000
    3      C       0.7802610000     1.4609790000     0.7939310000
    4      H      -0.0961390000    -0.0569210000     2.1533310000
    5      C       0.8905610000     1.6520790000    -0.5952690000
    6      S       0.1276610000     0.3306790000    -1.4695690000
    7      C       1.3241610000     2.4029790000     1.8318310000
    8      H       1.1113610000     2.0343790000     2.8539310000
    9      H       0.8784610000     3.4157790000     1.7434310000
   10      H       2.4241610000     2.5233790000     1.7434310000
   11      C      -0.3435390000    -1.9261210000     0.0172310000
   12      H       0.6713610000    -1.9258210000    -0.3520690000
   13      H      -0.0634390000    -2.6299210000     0.7870310000
   14      H      -0.6674390000    -2.4450210000    -0.8727690000
   15      H       1.3652610000     2.4740790000    -1.1443690000
 ----------------------------------------------------------------

   10    -629.4079428266      6.95e-07  Convergence criterion met
 Total energy in the final basis set =     -629.4079428266
        RIMP2         total energy =      -630.5868398137 a.u.

                    Orbital Energies (a.u.)
 --------------------------------------------------------------

 Alpha MOs
 -- Occupied --
-91.9761 -11.2793 -11.2558 -11.2476 -11.2277 -11.2270 -11.2200  -8.9765
 -6.6575  -6.6569  -6.6563  -1.1643  -1.0569  -0.9955  -0.9426  -0.8811
 -0.7464  -0.7203  -0.6484  -0.5857  -0.5803  -0.5646  -0.5528  -0.5473
 -0.5085  -0.4934  -0.4625  -0.4536  -0.3400  -0.2891

          Ground-State Mulliken Net Atomic Charges

     Atom                 Charge (a.u.)
  ----------------------------------------
      1 C                     0.050355
      2 C                    -0.317046
      3 C                     0.060800
      4 H                     0.176931
      5 C                    -0.267622
      6 S                    -0.003774
      7 C                    -0.270681
      8 H                     0.101659
      9 H                     0.107779
     10 H                     0.106662
     11 C                    -0.369462
     12 H                     0.143839
     13 H                     0.158672
     14 H                     0.128721
     15 H                     0.193170
  ----------------------------------------
  Sum of atomic charges =     0.000000

                    Cartesian Multipole Moments
 -----------------------------------------------------------------
    Charge (ESU x 10^10)
                -0.0000
    Dipole Moment (Debye)
         X       1.3599      Y      -0.4912      Z       1.2771
       Tot       1.9292
    Quadrupole Moments (Debye-Ang)
        XX     -52.7085     XY       2.6076     YY     -44.2851
        XZ       0.3508     YZ       0.5120     ZZ     -48.5600

 Total job time:  158.17s(wall), 156.13s(cpu)
        *  Thank you very much for using Q-Chem.  Have a nice day.  *
