 Q-Chem 5.4, Q-Chem, Inc., Pleasanton, CA (2021)
 Q-Chem 5.4.0 for Intel X86 EM64T Linux

User input:
--------------------------------------------------------------
$molecule
0 1
C	-0.589398	-0.237127	0.010542
C	0.158502	0.194673	1.109942
C	1.357002	0.886573	0.787242
H	-0.160898	0.010273	2.146642
C	1.548102	0.996873	-0.601958
S	0.226802	0.234073	-1.476258
C	2.299102	1.430473	1.825142
H	1.930402	1.217573	2.847242
H	2.419502	2.530373	1.736742
H	3.311902	0.984673	1.736742
C	-0.589398	-1.677827	0.010542
H	-0.049498	-1.678027	0.945942
H	0.120102	-2.381627	-0.398958
H	-1.409598	-2.196727	0.484142
H	2.370202	1.471473	-1.151058
$end

$rem
JOBTYPE		SP
EXCHANGE	HF
CORRELATION	pRIMP2
BASIS		cc-pvtz
METHOD		rimp2
AUX_BASIS	rimp2-cc-pvtz
SOLVENT_METHOD	PCM
PURECART	11111
SYMMETRY	false
MEM_TOTAL	110000
SCF_CONVERGENCE = 6
THRESH=10
$end

$solvent
dielectric 4.90
$end
--------------------------------------------------------------

             Standard Nuclear Orientation (Angstroms)
    I     Atom           X                Y                Z
 ----------------------------------------------------------------
    1      C      -0.5893980000    -0.2371270000     0.0105420000
    2      C       0.1585020000     0.1946730000     1.1099420000
    3      C       1.3570020000     0.8865730000     0.7872420000
    4      H      -0.1608980000     0.0102730000     2.1466420000
    5      C       1.5481020000     0.9968730000    -0.6019580000
    6      S       0.2268020000     0.2340730000    -1.4762580000
    7      C       2.2991020000     1.4304730000     1.8251420000
    8      H       1.9304020000     1.2175730000     2.8472420000
    9      H       2.4195020000     2.5303730000     1.7367420000
   10      H       3.3119020000     0.9846730000     1.7367420000
   11      C      -0.5893980000    -1.6778270000     0.0105420000
   12      H      -0.0494980000    -1.6780270000     0.9459420000
   13      H       0.1201020000    -2.3816270000    -0.3989580000
   14      H      -1.4095980000    -2.1967270000     0.4841420000
   15      H       2.3702020000     1.4714730000    -1.1510580000
 ----------------------------------------------------------------

   11    -629.3327570722      6.79e-07  Convergence criterion met
 Total energy in the final basis set =     -629.3327570722
        RIMP2         total energy =      -630.5270690063 a.u.

                    Orbital Energies (a.u.)
 --------------------------------------------------------------

 Alpha MOs
 -- Occupied --
-91.9769 -11.2820 -11.2527 -11.2488 -11.2434 -11.2294 -11.2038  -8.9773
 -6.6581  -6.6572  -6.6570  -1.1769  -1.0572  -1.0029  -0.9324  -0.8820
 -0.7486  -0.7356  -0.6437  -0.5905  -0.5825  -0.5728  -0.5525  -0.5447
 -0.5194  -0.4741  -0.4491  -0.4397  -0.3275  -0.2953

          Ground-State Mulliken Net Atomic Charges

     Atom                 Charge (a.u.)
  ----------------------------------------
      1 C                    -0.115407
      2 C                    -0.102704
      3 C                    -0.034653
      4 H                     0.185159
      5 C                    -0.186627
      6 S                     0.021753
      7 C                    -0.267593
      8 H                     0.101880
      9 H                     0.106941
     10 H                     0.103558
     11 C                    -0.375121
     12 H                     0.120240
     13 H                     0.143762
     14 H                     0.100526
     15 H                     0.198286
  ----------------------------------------
  Sum of atomic charges =     0.000000

                    Cartesian Multipole Moments
 -----------------------------------------------------------------
    Charge (ESU x 10^10)
                -0.0000
    Dipole Moment (Debye)
         X       2.7847      Y       0.1616      Z       2.1692
       Tot       3.5336
    Quadrupole Moments (Debye-Ang)
        XX     -48.4641     XY       3.4052     YY     -50.3869
        XZ      -0.8378     YZ      -0.7382     ZZ     -47.6563

 Total job time:  180.21s(wall), 178.42s(cpu)
        *  Thank you very much for using Q-Chem.  Have a nice day.  *
