 Q-Chem 5.4, Q-Chem, Inc., Pleasanton, CA (2021)
 Q-Chem 5.4.0 for Intel X86 EM64T Linux

User input:
--------------------------------------------------------------
$molecule
0 1
C	-0.227523	-0.535397	0.016960
C	0.067877	0.276103	1.116360
C	0.541177	1.576503	0.793660
H	-0.058223	-0.070397	2.153060
C	0.616677	1.783903	-0.595540
S	0.094777	0.350203	-1.469840
C	0.913277	2.598703	1.831560
H	0.767677	2.198703	2.853660
H	0.298477	3.518703	1.743160
H	1.975677	2.908303	1.743160
C	-0.227523	-1.976097	0.016960
H	-1.162723	-1.975797	-0.523140
H	0.182077	-2.679897	-0.692440
H	-0.701123	-2.494997	0.837160
H	0.941377	2.675903	-1.144640
$end

$rem
JOBTYPE		SP
EXCHANGE	HF
CORRELATION	pRIMP2
BASIS		cc-pvtz
METHOD		rimp2
AUX_BASIS	rimp2-cc-pvtz
SOLVENT_METHOD	PCM
PURECART	11111
SYMMETRY	false
MEM_TOTAL	110000
SCF_CONVERGENCE = 6
THRESH=10
$end

$solvent
dielectric 4.90
$end
--------------------------------------------------------------

             Standard Nuclear Orientation (Angstroms)
    I     Atom           X                Y                Z
 ----------------------------------------------------------------
    1      C      -0.2275230000    -0.5353970000     0.0169600000
    2      C       0.0678770000     0.2761030000     1.1163600000
    3      C       0.5411770000     1.5765030000     0.7936600000
    4      H      -0.0582230000    -0.0703970000     2.1530600000
    5      C       0.6166770000     1.7839030000    -0.5955400000
    6      S       0.0947770000     0.3502030000    -1.4698400000
    7      C       0.9132770000     2.5987030000     1.8315600000
    8      H       0.7676770000     2.1987030000     2.8536600000
    9      H       0.2984770000     3.5187030000     1.7431600000
   10      H       1.9756770000     2.9083030000     1.7431600000
   11      C      -0.2275230000    -1.9760970000     0.0169600000
   12      H      -1.1627230000    -1.9757970000    -0.5231400000
   13      H       0.1820770000    -2.6798970000    -0.6924400000
   14      H      -0.7011230000    -2.4949970000     0.8371600000
   15      H       0.9413770000     2.6759030000    -1.1446400000
 ----------------------------------------------------------------

   10    -629.4126303176      5.73e-07  Convergence criterion met
 Total energy in the final basis set =     -629.4126303176
        RIMP2         total energy =      -630.5911730594 a.u.

                    Orbital Energies (a.u.)
 --------------------------------------------------------------

 Alpha MOs
 -- Occupied --
-91.9780 -11.2779 -11.2550 -11.2471 -11.2279 -11.2267 -11.2174  -8.9779
 -6.6589  -6.6584  -6.6578  -1.1610  -1.0550  -0.9963  -0.9438  -0.8824
 -0.7458  -0.7193  -0.6462  -0.5891  -0.5745  -0.5711  -0.5503  -0.5464
 -0.5106  -0.4883  -0.4607  -0.4539  -0.3384  -0.2917

          Ground-State Mulliken Net Atomic Charges

     Atom                 Charge (a.u.)
  ----------------------------------------
      1 C                     0.014382
      2 C                    -0.255687
      3 C                     0.034986
      4 H                     0.181575
      5 C                    -0.257123
      6 S                    -0.007724
      7 C                    -0.272559
      8 H                     0.101374
      9 H                     0.106996
     10 H                     0.106762
     11 C                    -0.369060
     12 H                     0.128105
     13 H                     0.158341
     14 H                     0.135435
     15 H                     0.194195
  ----------------------------------------
  Sum of atomic charges =     0.000000

                    Cartesian Multipole Moments
 -----------------------------------------------------------------
    Charge (ESU x 10^10)
                -0.0000
    Dipole Moment (Debye)
         X      -0.1219      Y      -0.3309      Z       1.1455
       Tot       1.1986
    Quadrupole Moments (Debye-Ang)
        XX     -53.0440     XY       4.0854     YY     -43.0613
        XZ      -0.1708     YZ       1.0019     ZZ     -48.5530

 Total job time:  159.16s(wall), 155.77s(cpu)
        *  Thank you very much for using Q-Chem.  Have a nice day.  *
