 Q-Chem 5.4, Q-Chem, Inc., Pleasanton, CA (2021)
 Q-Chem 5.4.0 for Intel X86 EM64T Linux

User input:
--------------------------------------------------------------
$molecule
0 1
C	-0.523203	-0.333972	0.018379
C	0.138397	0.221128	1.117779
C	1.198497	1.110628	0.795079
H	-0.144103	-0.015972	2.154479
C	1.367597	1.252428	-0.594121
S	0.198697	0.271728	-1.468421
C	2.031797	1.809828	1.832979
H	1.705697	1.536228	2.855079
H	1.959397	2.914028	1.744579
H	3.106597	1.546728	1.744579
C	-0.523203	-1.774672	0.018379
H	0.171097	-1.774872	-0.808921
H	-1.150703	-2.478472	-0.508221
H	0.202397	-2.293572	0.627179
H	2.094697	1.862628	-1.143221
$end

$rem
JOBTYPE		SP
EXCHANGE	HF
CORRELATION	pRIMP2
BASIS		cc-pvtz
METHOD		rimp2
AUX_BASIS	rimp2-cc-pvtz
SOLVENT_METHOD	PCM
PURECART	11111
SYMMETRY	false
MEM_TOTAL	110000
SCF_CONVERGENCE = 6
THRESH=10
$end

$solvent
dielectric 4.90
$end
--------------------------------------------------------------

             Standard Nuclear Orientation (Angstroms)
    I     Atom           X                Y                Z
 ----------------------------------------------------------------
    1      C      -0.5232030000    -0.3339720000     0.0183790000
    2      C       0.1383970000     0.2211280000     1.1177790000
    3      C       1.1984970000     1.1106280000     0.7950790000
    4      H      -0.1441030000    -0.0159720000     2.1544790000
    5      C       1.3675970000     1.2524280000    -0.5941210000
    6      S       0.1986970000     0.2717280000    -1.4684210000
    7      C       2.0317970000     1.8098280000     1.8329790000
    8      H       1.7056970000     1.5362280000     2.8550790000
    9      H       1.9593970000     2.9140280000     1.7445790000
   10      H       3.1065970000     1.5467280000     1.7445790000
   11      C      -0.5232030000    -1.7746720000     0.0183790000
   12      H       0.1710970000    -1.7748720000    -0.8089210000
   13      H      -1.1507030000    -2.4784720000    -0.5082210000
   14      H       0.2023970000    -2.2935720000     0.6271790000
   15      H       2.0946970000     1.8626280000    -1.1432210000
 ----------------------------------------------------------------

   10    -629.3653579005      6.83e-07  Convergence criterion met
 Total energy in the final basis set =     -629.3653579005
        RIMP2         total energy =      -630.5531130169 a.u.

                    Orbital Energies (a.u.)
 --------------------------------------------------------------

 Alpha MOs
 -- Occupied --
-91.9710 -11.2721 -11.2604 -11.2482 -11.2442 -11.2284 -11.2086  -8.9726
 -6.6535  -6.6526  -6.6523  -1.1718  -1.0578  -0.9949  -0.9429  -0.8785
 -0.7527  -0.7253  -0.6439  -0.5899  -0.5819  -0.5651  -0.5517  -0.5479
 -0.5135  -0.4840  -0.4618  -0.4359  -0.3368  -0.2939

          Ground-State Mulliken Net Atomic Charges

     Atom                 Charge (a.u.)
  ----------------------------------------
      1 C                    -0.032137
      2 C                    -0.198724
      3 C                     0.009550
      4 H                     0.182749
      5 C                    -0.214263
      6 S                    -0.004316
      7 C                    -0.268525
      8 H                     0.101736
      9 H                     0.107766
     10 H                     0.105541
     11 C                    -0.380967
     12 H                     0.136176
     13 H                     0.129029
     14 H                     0.130608
     15 H                     0.195777
  ----------------------------------------
  Sum of atomic charges =     0.000000

                    Cartesian Multipole Moments
 -----------------------------------------------------------------
    Charge (ESU x 10^10)
                -0.0000
    Dipole Moment (Debye)
         X       2.1796      Y       0.0272      Z       1.2261
       Tot       2.5009
    Quadrupole Moments (Debye-Ang)
        XX     -49.7380     XY       3.7984     YY     -48.4548
        XZ       0.3485     YZ       1.2320     ZZ     -48.1286

 Total job time:  161.08s(wall), 159.74s(cpu)
        *  Thank you very much for using Q-Chem.  Have a nice day.  *
