 Q-Chem 5.4, Q-Chem, Inc., Pleasanton, CA (2021)
 Q-Chem 5.4.0 for Intel X86 EM64T Linux

User input:
--------------------------------------------------------------
$molecule
0 1
C	-0.003365	-0.576309	0.011472
C	-0.003365	0.287291	1.110872
C	-0.003265	1.671191	0.788172
H	-0.003365	-0.081509	2.147572
C	-0.003265	1.891891	-0.601028
S	-0.003365	0.366091	-1.475328
C	-0.003265	2.758991	1.826072
H	-0.003265	2.333291	2.848172
H	-0.895665	3.413291	1.737672
H	0.889135	3.413191	1.737672
C	-0.003365	-2.017009	0.011472
H	0.823935	-2.017209	0.705772
H	0.523235	-2.720809	-0.616028
H	-0.612165	-2.535909	0.737072
H	-0.003265	2.841091	-1.150128
$end

$rem
JOBTYPE		SP
EXCHANGE	HF
CORRELATION	pRIMP2
BASIS		cc-pvtz
METHOD		rimp2
AUX_BASIS	rimp2-cc-pvtz
SOLVENT_METHOD	PCM
PURECART	11111
SYMMETRY	false
MEM_TOTAL	110000
SCF_CONVERGENCE = 6
THRESH=10
$end

$solvent
dielectric 4.90
$end
--------------------------------------------------------------

             Standard Nuclear Orientation (Angstroms)
    I     Atom           X                Y                Z
 ----------------------------------------------------------------
    1      C      -0.0033650000    -0.5763090000     0.0114720000
    2      C      -0.0033650000     0.2872910000     1.1108720000
    3      C      -0.0032650000     1.6711910000     0.7881720000
    4      H      -0.0033650000    -0.0815090000     2.1475720000
    5      C      -0.0032650000     1.8918910000    -0.6010280000
    6      S      -0.0033650000     0.3660910000    -1.4753280000
    7      C      -0.0032650000     2.7589910000     1.8260720000
    8      H      -0.0032650000     2.3332910000     2.8481720000
    9      H      -0.8956650000     3.4132910000     1.7376720000
   10      H       0.8891350000     3.4131910000     1.7376720000
   11      C      -0.0033650000    -2.0170090000     0.0114720000
   12      H       0.8239350000    -2.0172090000     0.7057720000
   13      H       0.5232350000    -2.7208090000    -0.6160280000
   14      H      -0.6121650000    -2.5359090000     0.7370720000
   15      H      -0.0032650000     2.8410910000    -1.1501280000
 ----------------------------------------------------------------

   10    -629.4237797363      6.06e-07  Convergence criterion met
 Total energy in the final basis set =     -629.4237797363
        RIMP2         total energy =      -630.6007097022 a.u.

                    Orbital Energies (a.u.)
 --------------------------------------------------------------

 Alpha MOs
 -- Occupied --
-91.9771 -11.2835 -11.2507 -11.2473 -11.2270 -11.2269 -11.2195  -8.9769
 -6.6578  -6.6573  -6.6567  -1.1603  -1.0552  -0.9988  -0.9400  -0.8837
 -0.7423  -0.7206  -0.6482  -0.5912  -0.5743  -0.5696  -0.5578  -0.5434
 -0.5091  -0.4888  -0.4662  -0.4493  -0.3373  -0.2934

          Ground-State Mulliken Net Atomic Charges

     Atom                 Charge (a.u.)
  ----------------------------------------
      1 C                     0.072575
      2 C                    -0.288390
      3 C                     0.039606
      4 H                     0.176400
      5 C                    -0.270956
      6 S                    -0.004149
      7 C                    -0.275214
      8 H                     0.101130
      9 H                     0.107357
     10 H                     0.107230
     11 C                    -0.389845
     12 H                     0.136831
     13 H                     0.159907
     14 H                     0.135600
     15 H                     0.191919
  ----------------------------------------
  Sum of atomic charges =     0.000000

                    Cartesian Multipole Moments
 -----------------------------------------------------------------
    Charge (ESU x 10^10)
                -0.0000
    Dipole Moment (Debye)
         X       0.5428      Y      -0.5427      Z       1.8933
       Tot       2.0429
    Quadrupole Moments (Debye-Ang)
        XX     -54.0869     XY      -1.3033     YY     -41.9734
        XZ      -0.2880     YZ      -0.4879     ZZ     -48.7184

 Total job time:  156.99s(wall), 154.75s(cpu)
        *  Thank you very much for using Q-Chem.  Have a nice day.  *
