 Q-Chem 5.4, Q-Chem, Inc., Pleasanton, CA (2021)
 Q-Chem 5.4.0 for Intel X86 EM64T Linux

User input:
--------------------------------------------------------------
$molecule
0 1
C	-0.524521	-0.333972	0.015308
C	0.137079	0.221128	1.114708
C	1.197179	1.110628	0.792008
H	-0.145421	-0.015972	2.151408
C	1.366279	1.252428	-0.597192
S	0.197379	0.271728	-1.471492
C	2.030479	1.809828	1.829908
H	1.704379	1.536228	2.852008
H	1.958079	2.914028	1.741508
H	3.105279	1.546728	1.741508
C	-0.524521	-1.774672	0.015308
H	0.539079	-1.774872	-0.172092
H	-0.666721	-2.478472	-0.791492
H	-0.360021	-2.293572	0.948008
H	2.093379	1.862628	-1.146292
$end

$rem
JOBTYPE		SP
EXCHANGE	HF
CORRELATION	pRIMP2
BASIS		cc-pvtz
METHOD		rimp2
AUX_BASIS	rimp2-cc-pvtz
SOLVENT_METHOD	PCM
PURECART	11111
SYMMETRY	false
MEM_TOTAL	110000
SCF_CONVERGENCE = 6
THRESH=10
$end

$solvent
dielectric 4.90
$end
--------------------------------------------------------------

             Standard Nuclear Orientation (Angstroms)
    I     Atom           X                Y                Z
 ----------------------------------------------------------------
    1      C      -0.5245210000    -0.3339720000     0.0153080000
    2      C       0.1370790000     0.2211280000     1.1147080000
    3      C       1.1971790000     1.1106280000     0.7920080000
    4      H      -0.1454210000    -0.0159720000     2.1514080000
    5      C       1.3662790000     1.2524280000    -0.5971920000
    6      S       0.1973790000     0.2717280000    -1.4714920000
    7      C       2.0304790000     1.8098280000     1.8299080000
    8      H       1.7043790000     1.5362280000     2.8520080000
    9      H       1.9580790000     2.9140280000     1.7415080000
   10      H       3.1052790000     1.5467280000     1.7415080000
   11      C      -0.5245210000    -1.7746720000     0.0153080000
   12      H       0.5390790000    -1.7748720000    -0.1720920000
   13      H      -0.6667210000    -2.4784720000    -0.7914920000
   14      H      -0.3600210000    -2.2935720000     0.9480080000
   15      H       2.0933790000     1.8626280000    -1.1462920000
 ----------------------------------------------------------------

   10    -629.3750949821      6.24e-07  Convergence criterion met
 Total energy in the final basis set =     -629.3750949821
        RIMP2         total energy =      -630.5619409377 a.u.

                    Orbital Energies (a.u.)
 --------------------------------------------------------------

 Alpha MOs
 -- Occupied --
-91.9736 -11.2684 -11.2684 -11.2501 -11.2374 -11.2285 -11.2170  -8.9746
 -6.6555  -6.6548  -6.6544  -1.1724  -1.0584  -0.9971  -0.9391  -0.8809
 -0.7495  -0.7260  -0.6446  -0.5873  -0.5863  -0.5672  -0.5522  -0.5462
 -0.5092  -0.4950  -0.4606  -0.4427  -0.3399  -0.2883

          Ground-State Mulliken Net Atomic Charges

     Atom                 Charge (a.u.)
  ----------------------------------------
      1 C                    -0.013800
      2 C                    -0.230048
      3 C                     0.023450
      4 H                     0.179653
      5 C                    -0.233286
      6 S                     0.000749
      7 C                    -0.268370
      8 H                     0.102199
      9 H                     0.107771
     10 H                     0.105734
     11 C                    -0.364820
     12 H                     0.129035
     13 H                     0.142058
     14 H                     0.124562
     15 H                     0.195112
  ----------------------------------------
  Sum of atomic charges =     0.000000

                    Cartesian Multipole Moments
 -----------------------------------------------------------------
    Charge (ESU x 10^10)
                -0.0000
    Dipole Moment (Debye)
         X       2.1236      Y      -0.2672      Z       1.5403
       Tot       2.6370
    Quadrupole Moments (Debye-Ang)
        XX     -50.2365     XY       3.8296     YY     -47.8909
        XZ       0.1465     YZ       0.3577     ZZ     -48.1549

 Total job time:  163.00s(wall), 161.61s(cpu)
        *  Thank you very much for using Q-Chem.  Have a nice day.  *
