 Q-Chem 5.4, Q-Chem, Inc., Pleasanton, CA (2021)
 Q-Chem 5.4.0 for Intel X86 EM64T Linux

User input:
--------------------------------------------------------------
$molecule
0 1
C	-0.062705	-0.573727	0.018379
C	0.012595	0.286573	1.117779
C	0.133195	1.665273	0.795079
H	-0.019505	-0.080827	2.154479
C	0.152495	1.885073	-0.594121
S	0.019495	0.365073	-1.468421
C	0.228095	2.748873	1.832979
H	0.190995	2.324773	2.855079
H	-0.603905	3.478373	1.744579
H	1.174095	3.322873	1.744579
C	-0.062705	-2.014427	0.018379
H	0.631595	-2.014627	-0.808921
H	-0.690205	-2.718227	-0.508221
H	0.662895	-2.533327	0.627179
H	0.235195	2.830673	-1.143221
$end

$rem
JOBTYPE		SP
EXCHANGE	HF
CORRELATION	pRIMP2
BASIS		cc-pvtz
METHOD		rimp2
AUX_BASIS	rimp2-cc-pvtz
SOLVENT_METHOD	PCM
PURECART	11111
SYMMETRY	false
MEM_TOTAL	110000
SCF_CONVERGENCE = 6
THRESH=10
$end

$solvent
dielectric 4.90
$end
--------------------------------------------------------------

             Standard Nuclear Orientation (Angstroms)
    I     Atom           X                Y                Z
 ----------------------------------------------------------------
    1      C      -0.0627050000    -0.5737270000     0.0183790000
    2      C       0.0125950000     0.2865730000     1.1177790000
    3      C       0.1331950000     1.6652730000     0.7950790000
    4      H      -0.0195050000    -0.0808270000     2.1544790000
    5      C       0.1524950000     1.8850730000    -0.5941210000
    6      S       0.0194950000     0.3650730000    -1.4684210000
    7      C       0.2280950000     2.7488730000     1.8329790000
    8      H       0.1909950000     2.3247730000     2.8550790000
    9      H      -0.6039050000     3.4783730000     1.7445790000
   10      H       1.1740950000     3.3228730000     1.7445790000
   11      C      -0.0627050000    -2.0144270000     0.0183790000
   12      H       0.6315950000    -2.0146270000    -0.8089210000
   13      H      -0.6902050000    -2.7182270000    -0.5082210000
   14      H       0.6628950000    -2.5333270000     0.6271790000
   15      H       0.2351950000     2.8306730000    -1.1432210000
 ----------------------------------------------------------------

   10    -629.4225517704      6.09e-07  Convergence criterion met
 Total energy in the final basis set =     -629.4225517704
        RIMP2         total energy =      -630.5991202331 a.u.

                    Orbital Energies (a.u.)
 --------------------------------------------------------------

 Alpha MOs
 -- Occupied --
-91.9783 -11.2795 -11.2546 -11.2469 -11.2278 -11.2267 -11.2182  -8.9783
 -6.6593  -6.6587  -6.6581  -1.1608  -1.0556  -0.9958  -0.9451  -0.8819
 -0.7467  -0.7185  -0.6477  -0.5913  -0.5760  -0.5670  -0.5514  -0.5476
 -0.5082  -0.4893  -0.4649  -0.4501  -0.3390  -0.2970

          Ground-State Mulliken Net Atomic Charges

     Atom                 Charge (a.u.)
  ----------------------------------------
      1 C                     0.057801
      2 C                    -0.282344
      3 C                     0.043387
      4 H                     0.180999
      5 C                    -0.262831
      6 S                    -0.004479
      7 C                    -0.273066
      8 H                     0.101511
      9 H                     0.107272
     10 H                     0.107070
     11 C                    -0.373287
     12 H                     0.121962
     13 H                     0.146827
     14 H                     0.135146
     15 H                     0.194033
  ----------------------------------------
  Sum of atomic charges =     0.000000

                    Cartesian Multipole Moments
 -----------------------------------------------------------------
    Charge (ESU x 10^10)
                -0.0000
    Dipole Moment (Debye)
         X       0.5676      Y      -0.2640      Z       0.9651
       Tot       1.1503
    Quadrupole Moments (Debye-Ang)
        XX     -53.9896     XY      -0.1212     YY     -42.0588
        XZ       0.3644     YZ       1.4073     ZZ     -48.7366

 Total job time:  157.84s(wall), 156.87s(cpu)
        *  Thank you very much for using Q-Chem.  Have a nice day.  *
