 Q-Chem 5.4, Q-Chem, Inc., Pleasanton, CA (2021)
 Q-Chem 5.4.0 for Intel X86 EM64T Linux

User input:
--------------------------------------------------------------
$molecule
0 1
C	-0.590394	-0.237127	0.018946
C	0.157506	0.194673	1.118346
C	1.356006	0.886573	0.795646
H	-0.161894	0.010273	2.155046
C	1.547106	0.996873	-0.593554
S	0.225806	0.234073	-1.467854
C	2.298106	1.430473	1.833546
H	1.929406	1.217573	2.855646
H	2.418506	2.530373	1.745146
H	3.310906	0.984673	1.745146
C	-0.590394	-1.677827	0.018946
H	-0.050294	-1.678027	-0.916254
H	-1.299794	-2.381627	-0.390654
H	0.229806	-2.196727	0.492546
H	2.369206	1.471473	-1.142654
$end

$rem
JOBTYPE		SP
EXCHANGE	HF
CORRELATION	pRIMP2
BASIS		cc-pvtz
METHOD		rimp2
AUX_BASIS	rimp2-cc-pvtz
SOLVENT_METHOD	PCM
PURECART	11111
SYMMETRY	false
MEM_TOTAL	110000
SCF_CONVERGENCE = 6
THRESH=10
$end

$solvent
dielectric 4.90
$end
--------------------------------------------------------------

             Standard Nuclear Orientation (Angstroms)
    I     Atom           X                Y                Z
 ----------------------------------------------------------------
    1      C      -0.5903940000    -0.2371270000     0.0189460000
    2      C       0.1575060000     0.1946730000     1.1183460000
    3      C       1.3560060000     0.8865730000     0.7956460000
    4      H      -0.1618940000     0.0102730000     2.1550460000
    5      C       1.5471060000     0.9968730000    -0.5935540000
    6      S       0.2258060000     0.2340730000    -1.4678540000
    7      C       2.2981060000     1.4304730000     1.8335460000
    8      H       1.9294060000     1.2175730000     2.8556460000
    9      H       2.4185060000     2.5303730000     1.7451460000
   10      H       3.3109060000     0.9846730000     1.7451460000
   11      C      -0.5903940000    -1.6778270000     0.0189460000
   12      H      -0.0502940000    -1.6780270000    -0.9162540000
   13      H      -1.2997940000    -2.3816270000    -0.3906540000
   14      H       0.2298060000    -2.1967270000     0.4925460000
   15      H       2.3692060000     1.4714730000    -1.1426540000
 ----------------------------------------------------------------

   10    -629.3351243942      8.89e-07  Convergence criterion met
 Total energy in the final basis set =     -629.3351243942
        RIMP2         total energy =      -630.5271632903 a.u.

                    Orbital Energies (a.u.)
 --------------------------------------------------------------

 Alpha MOs
 -- Occupied --
-91.9702 -11.2826 -11.2543 -11.2483 -11.2474 -11.2291 -11.2033  -8.9723
 -6.6531  -6.6521  -6.6519  -1.1778  -1.0596  -0.9960  -0.9432  -0.8767
 -0.7572  -0.7291  -0.6441  -0.5915  -0.5832  -0.5649  -0.5533  -0.5472
 -0.5161  -0.4774  -0.4633  -0.4290  -0.3311  -0.2961

          Ground-State Mulliken Net Atomic Charges

     Atom                 Charge (a.u.)
  ----------------------------------------
      1 C                    -0.091614
      2 C                    -0.122738
      3 C                    -0.021678
      4 H                     0.186349
      5 C                    -0.184979
      6 S                     0.001113
      7 C                    -0.267766
      8 H                     0.102097
      9 H                     0.107557
     10 H                     0.104507
     11 C                    -0.385966
     12 H                     0.136086
     13 H                     0.119158
     14 H                     0.119377
     15 H                     0.198497
  ----------------------------------------
  Sum of atomic charges =     0.000000

                    Cartesian Multipole Moments
 -----------------------------------------------------------------
    Charge (ESU x 10^10)
                -0.0000
    Dipole Moment (Debye)
         X       2.7736      Y       0.1187      Z       1.2289
       Tot       3.0360
    Quadrupole Moments (Debye-Ang)
        XX     -48.3566     XY       3.6341     YY     -50.4657
        XZ       0.1778     YZ       1.3787     ZZ     -47.7254

 Total job time:  166.44s(wall), 165.11s(cpu)
        *  Thank you very much for using Q-Chem.  Have a nice day.  *
