 Q-Chem 5.4, Q-Chem, Inc., Pleasanton, CA (2021)
 Q-Chem 5.4.0 for Intel X86 EM64T Linux

User input:
--------------------------------------------------------------
$molecule
0 1
C	-0.282782	-0.512744	0.017956
C	0.082218	0.269956	1.117356
C	0.667118	1.524156	0.794656
H	-0.073682	-0.064344	2.154056
C	0.760418	1.724156	-0.594544
S	0.115518	0.341356	-1.468844
C	1.126818	2.509956	1.832556
H	0.946918	2.124256	2.854656
H	0.594518	3.480156	1.744156
H	2.212118	2.725856	1.744156
C	-0.282782	-1.953444	0.017956
H	-1.217982	-1.953644	-0.522144
H	-0.692382	-2.657244	0.727356
H	0.190818	-2.472344	-0.802244
H	1.161518	2.584456	-1.143644
$end

$rem
JOBTYPE		SP
EXCHANGE	HF
CORRELATION	pRIMP2
BASIS		cc-pvtz
METHOD		rimp2
AUX_BASIS	rimp2-cc-pvtz
SOLVENT_METHOD	PCM
PURECART	11111
SYMMETRY	false
MEM_TOTAL	110000
SCF_CONVERGENCE = 6
THRESH=10
$end

$solvent
dielectric 4.90
$end
--------------------------------------------------------------

             Standard Nuclear Orientation (Angstroms)
    I     Atom           X                Y                Z
 ----------------------------------------------------------------
    1      C      -0.2827820000    -0.5127440000     0.0179560000
    2      C       0.0822180000     0.2699560000     1.1173560000
    3      C       0.6671180000     1.5241560000     0.7946560000
    4      H      -0.0736820000    -0.0643440000     2.1540560000
    5      C       0.7604180000     1.7241560000    -0.5945440000
    6      S       0.1155180000     0.3413560000    -1.4688440000
    7      C       1.1268180000     2.5099560000     1.8325560000
    8      H       0.9469180000     2.1242560000     2.8546560000
    9      H       0.5945180000     3.4801560000     1.7441560000
   10      H       2.2121180000     2.7258560000     1.7441560000
   11      C      -0.2827820000    -1.9534440000     0.0179560000
   12      H      -1.2179820000    -1.9536440000    -0.5221440000
   13      H      -0.6923820000    -2.6572440000     0.7273560000
   14      H       0.1908180000    -2.4723440000    -0.8022440000
   15      H       1.1615180000     2.5844560000    -1.1436440000
 ----------------------------------------------------------------

   10    -629.4068239752      5.58e-07  Convergence criterion met
 Total energy in the final basis set =     -629.4068239752
        RIMP2         total energy =      -630.5863085614 a.u.

                    Orbital Energies (a.u.)
 --------------------------------------------------------------

 Alpha MOs
 -- Occupied --
-91.9786 -11.2758 -11.2562 -11.2470 -11.2278 -11.2266 -11.2162  -8.9786
 -6.6596  -6.6590  -6.6584  -1.1615  -1.0550  -0.9956  -0.9441  -0.8819
 -0.7460  -0.7194  -0.6467  -0.5882  -0.5739  -0.5681  -0.5526  -0.5461
 -0.5104  -0.4887  -0.4602  -0.4530  -0.3382  -0.2909

          Ground-State Mulliken Net Atomic Charges

     Atom                 Charge (a.u.)
  ----------------------------------------
      1 C                     0.008490
      2 C                    -0.252854
      3 C                     0.037021
      4 H                     0.180230
      5 C                    -0.255921
      6 S                    -0.003598
      7 C                    -0.272336
      8 H                     0.101443
      9 H                     0.107011
     10 H                     0.106419
     11 C                    -0.376449
     12 H                     0.127789
     13 H                     0.158233
     14 H                     0.139856
     15 H                     0.194665
  ----------------------------------------
  Sum of atomic charges =     0.000000

                    Cartesian Multipole Moments
 -----------------------------------------------------------------
    Charge (ESU x 10^10)
                -0.0000
    Dipole Moment (Debye)
         X       0.0366      Y      -0.2970      Z       1.1406
       Tot       1.1792
    Quadrupole Moments (Debye-Ang)
        XX     -52.4810     XY       4.7227     YY     -43.7162
        XZ      -0.1882     YZ       0.7034     ZZ     -48.5056

 Total job time:  156.51s(wall), 155.08s(cpu)
        *  Thank you very much for using Q-Chem.  Have a nice day.  *
