 Q-Chem 5.4, Q-Chem, Inc., Pleasanton, CA (2021)
 Q-Chem 5.4.0 for Intel X86 EM64T Linux

User input:
--------------------------------------------------------------
$molecule
0 1
C	-0.230893	-0.535395	0.019788
C	0.064507	0.276105	1.119188
C	0.537807	1.576505	0.796488
H	-0.061593	-0.070395	2.155888
C	0.613307	1.783905	-0.592712
S	0.091407	0.350205	-1.467012
C	0.909907	2.598705	1.834388
H	0.764307	2.198705	2.856488
H	0.295107	3.518705	1.745988
H	1.972307	2.908305	1.745988
C	-0.230893	-1.976095	0.019788
H	-0.600193	-1.976295	-0.995112
H	-1.000693	-2.679895	0.299888
H	0.659107	-2.494995	-0.304112
H	0.938007	2.675905	-1.141812
$end

$rem
JOBTYPE		SP
EXCHANGE	HF
CORRELATION	pRIMP2
BASIS		cc-pvtz
METHOD		rimp2
AUX_BASIS	rimp2-cc-pvtz
SOLVENT_METHOD	PCM
PURECART	11111
SYMMETRY	false
MEM_TOTAL	110000
SCF_CONVERGENCE = 6
THRESH=10
$end

$solvent
dielectric 4.90
$end
--------------------------------------------------------------

   10    -629.4132805029      5.26e-07  Convergence criterion met
 Total energy in the final basis set =     -629.4132805029
        RIMP2         total energy =      -630.5925785407 a.u.
 Total job time:  157.89s(wall), 156.31s(cpu)
        *  Thank you very much for using Q-Chem.  Have a nice day.  *
 Q-Chem 5.4, Q-Chem, Inc., Pleasanton, CA (2021)
 Q-Chem 5.4.0 for Intel X86 EM64T Linux

User input:
--------------------------------------------------------------
$molecule
0 1
C	-0.230893	-0.535395	0.019788
C	0.064507	0.276105	1.119188
C	0.537807	1.576505	0.796488
H	-0.061593	-0.070395	2.155888
C	0.613307	1.783905	-0.592712
S	0.091407	0.350205	-1.467012
C	0.909907	2.598705	1.834388
H	0.764307	2.198705	2.856488
H	0.295107	3.518705	1.745988
H	1.972307	2.908305	1.745988
C	-0.230893	-1.976095	0.019788
H	-0.600193	-1.976295	-0.995112
H	-1.000693	-2.679895	0.299888
H	0.659107	-2.494995	-0.304112
H	0.938007	2.675905	-1.141812
$end

$rem
JOBTYPE		SP
EXCHANGE	HF
CORRELATION	pRIMP2
BASIS		cc-pvtz
METHOD		rimp2
AUX_BASIS	rimp2-cc-pvtz
SOLVENT_METHOD	PCM
PURECART	11111
SYMMETRY	false
MEM_TOTAL	110000
SCF_CONVERGENCE = 6
THRESH=10
$end

$solvent
dielectric 4.90
$end
--------------------------------------------------------------

             Standard Nuclear Orientation (Angstroms)
    I     Atom           X                Y                Z
 ----------------------------------------------------------------
    1      C      -0.2308930000    -0.5353950000     0.0197880000
    2      C       0.0645070000     0.2761050000     1.1191880000
    3      C       0.5378070000     1.5765050000     0.7964880000
    4      H      -0.0615930000    -0.0703950000     2.1558880000
    5      C       0.6133070000     1.7839050000    -0.5927120000
    6      S       0.0914070000     0.3502050000    -1.4670120000
    7      C       0.9099070000     2.5987050000     1.8343880000
    8      H       0.7643070000     2.1987050000     2.8564880000
    9      H       0.2951070000     3.5187050000     1.7459880000
   10      H       1.9723070000     2.9083050000     1.7459880000
   11      C      -0.2308930000    -1.9760950000     0.0197880000
   12      H      -0.6001930000    -1.9762950000    -0.9951120000
   13      H      -1.0006930000    -2.6798950000     0.2998880000
   14      H       0.6591070000    -2.4949950000    -0.3041120000
   15      H       0.9380070000     2.6759050000    -1.1418120000
 ----------------------------------------------------------------

   10    -629.4132805029      5.26e-07  Convergence criterion met
 Total energy in the final basis set =     -629.4132805029
        RIMP2         total energy =      -630.5925785407 a.u.

                    Orbital Energies (a.u.)
 --------------------------------------------------------------

 Alpha MOs
 -- Occupied --
-91.9804 -11.2724 -11.2596 -11.2472 -11.2302 -11.2269 -11.2153  -8.9802
 -6.6611  -6.6606  -6.6600  -1.1618  -1.0550  -0.9951  -0.9460  -0.8815
 -0.7481  -0.7192  -0.6472  -0.5916  -0.5752  -0.5662  -0.5534  -0.5471
 -0.5102  -0.4827  -0.4647  -0.4452  -0.3382  -0.3021

          Ground-State Mulliken Net Atomic Charges

     Atom                 Charge (a.u.)
  ----------------------------------------
      1 C                     0.026573
      2 C                    -0.256475
      3 C                     0.038598
      4 H                     0.179435
      5 C                    -0.252636
      6 S                    -0.000960
      7 C                    -0.272343
      8 H                     0.101892
      9 H                     0.106820
     10 H                     0.106534
     11 C                    -0.363437
     12 H                     0.111411
     13 H                     0.152437
     14 H                     0.127179
     15 H                     0.194973
  ----------------------------------------
  Sum of atomic charges =     0.000000

                    Cartesian Multipole Moments
 -----------------------------------------------------------------
    Charge (ESU x 10^10)
                -0.0000
    Dipole Moment (Debye)
         X       0.3601      Y       0.0493      Z       0.9160
       Tot       0.9855
    Quadrupole Moments (Debye-Ang)
        XX     -52.7261     XY       3.4763     YY     -43.2972
        XZ      -0.0470     YZ       1.2533     ZZ     -48.7553

 Total job time:  155.63s(wall), 154.66s(cpu)
        *  Thank you very much for using Q-Chem.  Have a nice day.  *
