 Q-Chem 5.4, Q-Chem, Inc., Pleasanton, CA (2021)
 Q-Chem 5.4.0 for Intel X86 EM64T Linux

User input:
--------------------------------------------------------------
$molecule
0 1
C	-0.061345	-0.573727	0.019394
C	0.013955	0.286573	1.118794
C	0.134555	1.665273	0.796094
H	-0.018145	-0.080827	2.155494
C	0.153855	1.885073	-0.593106
S	0.020855	0.365073	-1.467406
C	0.229455	2.748873	1.833994
H	0.192355	2.324773	2.856094
H	-0.602545	3.478373	1.745594
H	1.175455	3.322873	1.745594
C	-0.061345	-2.014427	0.019394
H	0.308155	-2.014627	-0.995406
H	-0.831145	-2.718227	-0.260806
H	0.828655	-2.533327	0.343294
H	0.236555	2.830673	-1.142206
$end

$rem
JOBTYPE		SP
EXCHANGE	HF
CORRELATION	pRIMP2
BASIS		cc-pvtz
METHOD		rimp2
AUX_BASIS	rimp2-cc-pvtz
SOLVENT_METHOD	PCM
PURECART	11111
SYMMETRY	false
MEM_TOTAL	110000
SCF_CONVERGENCE = 6
THRESH=10
$end

$solvent
dielectric 4.90
$end
--------------------------------------------------------------

             Standard Nuclear Orientation (Angstroms)
    I     Atom           X                Y                Z
 ----------------------------------------------------------------
    1      C      -0.0613450000    -0.5737270000     0.0193940000
    2      C       0.0139550000     0.2865730000     1.1187940000
    3      C       0.1345550000     1.6652730000     0.7960940000
    4      H      -0.0181450000    -0.0808270000     2.1554940000
    5      C       0.1538550000     1.8850730000    -0.5931060000
    6      S       0.0208550000     0.3650730000    -1.4674060000
    7      C       0.2294550000     2.7488730000     1.8339940000
    8      H       0.1923550000     2.3247730000     2.8560940000
    9      H      -0.6025450000     3.4783730000     1.7455940000
   10      H       1.1754550000     3.3228730000     1.7455940000
   11      C      -0.0613450000    -2.0144270000     0.0193940000
   12      H       0.3081550000    -2.0146270000    -0.9954060000
   13      H      -0.8311450000    -2.7182270000    -0.2608060000
   14      H       0.8286550000    -2.5333270000     0.3432940000
   15      H       0.2365550000     2.8306730000    -1.1422060000
 ----------------------------------------------------------------

   10    -629.4208821960      5.60e-07  Convergence criterion met
 Total energy in the final basis set =     -629.4208821960
        RIMP2         total energy =      -630.5984551418 a.u.

                    Orbital Energies (a.u.)
 --------------------------------------------------------------

 Alpha MOs
 -- Occupied --
-91.9798 -11.2761 -11.2570 -11.2470 -11.2290 -11.2268 -11.2164  -8.9797
 -6.6606  -6.6601  -6.6595  -1.1610  -1.0552  -0.9954  -0.9460  -0.8817
 -0.7477  -0.7186  -0.6479  -0.5916  -0.5756  -0.5663  -0.5528  -0.5475
 -0.5086  -0.4870  -0.4648  -0.4457  -0.3385  -0.3020

          Ground-State Mulliken Net Atomic Charges

     Atom                 Charge (a.u.)
  ----------------------------------------
      1 C                     0.057607
      2 C                    -0.268324
      3 C                     0.041142
      4 H                     0.180192
      5 C                    -0.260364
      6 S                    -0.002513
      7 C                    -0.273095
      8 H                     0.101777
      9 H                     0.107026
     10 H                     0.106918
     11 C                    -0.372432
     12 H                     0.114627
     13 H                     0.141950
     14 H                     0.130553
     15 H                     0.194936
  ----------------------------------------
  Sum of atomic charges =     0.000000

                    Cartesian Multipole Moments
 -----------------------------------------------------------------
    Charge (ESU x 10^10)
                -0.0000
    Dipole Moment (Debye)
         X       0.3707      Y      -0.0420      Z       0.8801
       Tot       0.9559
    Quadrupole Moments (Debye-Ang)
        XX     -53.7422     XY       0.3507     YY     -42.2243
        XZ       0.2650     YZ       1.5066     ZZ     -48.7995

 Total job time:  158.00s(wall), 157.23s(cpu)
        *  Thank you very much for using Q-Chem.  Have a nice day.  *
