 Q-Chem 5.4, Q-Chem, Inc., Pleasanton, CA (2021)
 Q-Chem 5.4.0 for Intel X86 EM64T Linux

User input:
--------------------------------------------------------------
$molecule
0 1
C	-0.174454	-0.553191	0.010277
C	0.049046	0.281009	1.109677
C	0.407246	1.617709	0.786977
H	-0.046354	-0.075291	2.146377
C	0.464446	1.830809	-0.602223
S	0.069446	0.357109	-1.476523
C	0.688846	2.668409	1.824877
H	0.578646	2.257309	2.846977
H	-0.003754	3.531409	1.736477
H	1.720146	3.069409	1.736477
C	-0.174454	-1.993891	0.010277
H	-0.543954	-1.993591	1.025077
H	-0.944254	-2.697691	-0.269923
H	0.715546	-2.512791	0.334177
H	0.710146	2.747709	-1.151323
$end

$rem
JOBTYPE		SP
EXCHANGE	HF
CORRELATION	pRIMP2
BASIS		cc-pvtz
METHOD		rimp2
AUX_BASIS	rimp2-cc-pvtz
SOLVENT_METHOD	PCM
PURECART	11111
SYMMETRY	false
MEM_TOTAL	110000
SCF_CONVERGENCE = 6
THRESH=10
$end

$solvent
dielectric 4.90
$end
--------------------------------------------------------------

             Standard Nuclear Orientation (Angstroms)
    I     Atom           X                Y                Z
 ----------------------------------------------------------------
    1      C      -0.1744540000    -0.5531910000     0.0102770000
    2      C       0.0490460000     0.2810090000     1.1096770000
    3      C       0.4072460000     1.6177090000     0.7869770000
    4      H      -0.0463540000    -0.0752910000     2.1463770000
    5      C       0.4644460000     1.8308090000    -0.6022230000
    6      S       0.0694460000     0.3571090000    -1.4765230000
    7      C       0.6888460000     2.6684090000     1.8248770000
    8      H       0.5786460000     2.2573090000     2.8469770000
    9      H      -0.0037540000     3.5314090000     1.7364770000
   10      H       1.7201460000     3.0694090000     1.7364770000
   11      C      -0.1744540000    -1.9938910000     0.0102770000
   12      H      -0.5439540000    -1.9935910000     1.0250770000
   13      H      -0.9442540000    -2.6976910000    -0.2699230000
   14      H       0.7155460000    -2.5127910000     0.3341770000
   15      H       0.7101460000     2.7477090000    -1.1513230000
 ----------------------------------------------------------------

   10    -629.4211266210      5.06e-07  Convergence criterion met
 Total energy in the final basis set =     -629.4211266210
        RIMP2         total energy =      -630.5999029539 a.u.

                    Orbital Energies (a.u.)
 --------------------------------------------------------------

 Alpha MOs
 -- Occupied --
-91.9745 -11.2769 -11.2575 -11.2473 -11.2344 -11.2275 -11.2164  -8.9747
 -6.6556  -6.6550  -6.6545  -1.1614  -1.0541  -0.9995  -0.9394  -0.8844
 -0.7424  -0.7238  -0.6479  -0.5920  -0.5777  -0.5661  -0.5596  -0.5422
 -0.5107  -0.4860  -0.4666  -0.4377  -0.3379  -0.3022

          Ground-State Mulliken Net Atomic Charges

     Atom                 Charge (a.u.)
  ----------------------------------------
      1 C                     0.051655
      2 C                    -0.275132
      3 C                     0.038893
      4 H                     0.177516
      5 C                    -0.253794
      6 S                    -0.006128
      7 C                    -0.272549
      8 H                     0.101160
      9 H                     0.107036
     10 H                     0.107296
     11 C                    -0.370217
     12 H                     0.119925
     13 H                     0.153283
     14 H                     0.128143
     15 H                     0.192914
  ----------------------------------------
  Sum of atomic charges =     0.000000

                    Cartesian Multipole Moments
 -----------------------------------------------------------------
    Charge (ESU x 10^10)
                -0.0000
    Dipole Moment (Debye)
         X       0.1816      Y      -0.1140      Z       2.1325
       Tot       2.1432
    Quadrupole Moments (Debye-Ang)
        XX     -53.1272     XY       2.8553     YY     -42.7894
        XZ       0.1699     YZ      -0.9742     ZZ     -48.9064

 Total job time:  156.14s(wall), 154.94s(cpu)
        *  Thank you very much for using Q-Chem.  Have a nice day.  *
