 Q-Chem 5.4, Q-Chem, Inc., Pleasanton, CA (2021)
 Q-Chem 5.4.0 for Intel X86 EM64T Linux

User input:
--------------------------------------------------------------
$molecule
0 1
C	-0.582592	-0.237127	0.014756
C	0.165308	0.194673	1.114156
C	1.363808	0.886573	0.791456
H	-0.154092	0.010273	2.150856
C	1.554908	0.996873	-0.597744
S	0.233608	0.234073	-1.472044
C	2.305908	1.430473	1.829356
H	1.937208	1.217573	2.851456
H	2.426308	2.530373	1.740956
H	3.318708	0.984673	1.740956
C	-0.582592	-1.677827	0.014756
H	-1.646192	-1.678027	0.202156
H	-0.440392	-2.381627	0.821556
H	-0.747092	-2.196727	-0.917944
H	2.377008	1.471473	-1.146844
$end

$rem
JOBTYPE		SP
EXCHANGE	HF
CORRELATION	pRIMP2
BASIS		cc-pvtz
METHOD		rimp2
AUX_BASIS	rimp2-cc-pvtz
SOLVENT_METHOD	PCM
PURECART	11111
SYMMETRY	false
MEM_TOTAL	110000
SCF_CONVERGENCE = 6
THRESH=10
$end

$solvent
dielectric 4.90
$end
--------------------------------------------------------------

             Standard Nuclear Orientation (Angstroms)
    I     Atom           X                Y                Z
 ----------------------------------------------------------------
    1      C      -0.5825920000    -0.2371270000     0.0147560000
    2      C       0.1653080000     0.1946730000     1.1141560000
    3      C       1.3638080000     0.8865730000     0.7914560000
    4      H      -0.1540920000     0.0102730000     2.1508560000
    5      C       1.5549080000     0.9968730000    -0.5977440000
    6      S       0.2336080000     0.2340730000    -1.4720440000
    7      C       2.3059080000     1.4304730000     1.8293560000
    8      H       1.9372080000     1.2175730000     2.8514560000
    9      H       2.4263080000     2.5303730000     1.7409560000
   10      H       3.3187080000     0.9846730000     1.7409560000
   11      C      -0.5825920000    -1.6778270000     0.0147560000
   12      H      -1.6461920000    -1.6780270000     0.2021560000
   13      H      -0.4403920000    -2.3816270000     0.8215560000
   14      H      -0.7470920000    -2.1967270000    -0.9179440000
   15      H       2.3770080000     1.4714730000    -1.1468440000
 ----------------------------------------------------------------

   11    -629.3355901225      6.42e-07  Convergence criterion met
 Total energy in the final basis set =     -629.3355901225
        RIMP2         total energy =      -630.5285243259 a.u.

                    Orbital Energies (a.u.)
 --------------------------------------------------------------

 Alpha MOs
 -- Occupied --
-91.9713 -11.2799 -11.2521 -11.2484 -11.2416 -11.2285 -11.2042  -8.9724
 -6.6533  -6.6523  -6.6521  -1.1713  -1.0546  -0.9973  -0.9391  -0.8815
 -0.7500  -0.7299  -0.6430  -0.5869  -0.5774  -0.5650  -0.5535  -0.5421
 -0.5180  -0.4919  -0.4593  -0.4188  -0.3346  -0.2836

          Ground-State Mulliken Net Atomic Charges

     Atom                 Charge (a.u.)
  ----------------------------------------
      1 C                    -0.102908
      2 C                    -0.135297
      3 C                    -0.014122
      4 H                     0.184145
      5 C                    -0.186305
      6 S                     0.012723
      7 C                    -0.268974
      8 H                     0.101737
      9 H                     0.106578
     10 H                     0.104305
     11 C                    -0.397845
     12 H                     0.125790
     13 H                     0.146707
     14 H                     0.127678
     15 H                     0.195786
  ----------------------------------------
  Sum of atomic charges =     0.000000

                    Cartesian Multipole Moments
 -----------------------------------------------------------------
    Charge (ESU x 10^10)
                -0.0000
    Dipole Moment (Debye)
         X       1.7878      Y       0.0332      Z       1.8403
       Tot       2.5659
    Quadrupole Moments (Debye-Ang)
        XX     -47.8622     XY       5.2316     YY     -50.1268
        XZ      -0.2364     YZ      -0.1549     ZZ     -47.5030

 Total job time:  175.37s(wall), 174.38s(cpu)
        *  Thank you very much for using Q-Chem.  Have a nice day.  *
