 Q-Chem 5.4, Q-Chem, Inc., Pleasanton, CA (2021)
 Q-Chem 5.4.0 for Intel X86 EM64T Linux

User input:
--------------------------------------------------------------
$molecule
0 1
C	-0.004869	-0.576312	0.015606
C	-0.004869	0.287288	1.115006
C	-0.004769	1.671188	0.792306
H	-0.004869	-0.081512	2.151706
C	-0.004769	1.891888	-0.596894
S	-0.004869	0.366088	-1.471194
C	-0.004769	2.758988	1.830206
H	-0.004769	2.333288	2.852306
H	-0.897169	3.413288	1.741806
H	0.887631	3.413188	1.741806
C	-0.004869	-2.017012	0.015606
H	1.075131	-2.016712	0.015706
H	-0.004969	-2.720812	0.834806
H	-0.004869	-2.535912	-0.931494
H	-0.004769	2.841088	-1.145994
$end

$rem
JOBTYPE		SP
EXCHANGE	HF
CORRELATION	pRIMP2
BASIS		cc-pvtz
METHOD		rimp2
AUX_BASIS	rimp2-cc-pvtz
SOLVENT_METHOD	PCM
PURECART	11111
SYMMETRY	false
MEM_TOTAL	110000
SCF_CONVERGENCE = 6
THRESH=10
$end

$solvent
dielectric 4.90
$end
--------------------------------------------------------------

   10    -629.4244415733      7.11e-07  Convergence criterion met
 Total energy in the final basis set =     -629.4244415733
        RIMP2         total energy =      -630.5993897034 a.u.
 Total job time:  159.67s(wall), 157.40s(cpu)
        *  Thank you very much for using Q-Chem.  Have a nice day.  *
 Q-Chem 5.4, Q-Chem, Inc., Pleasanton, CA (2021)
 Q-Chem 5.4.0 for Intel X86 EM64T Linux

User input:
--------------------------------------------------------------
$molecule
0 1
C	-0.004869	-0.576312	0.015606
C	-0.004869	0.287288	1.115006
C	-0.004769	1.671188	0.792306
H	-0.004869	-0.081512	2.151706
C	-0.004769	1.891888	-0.596894
S	-0.004869	0.366088	-1.471194
C	-0.004769	2.758988	1.830206
H	-0.004769	2.333288	2.852306
H	-0.897169	3.413288	1.741806
H	0.887631	3.413188	1.741806
C	-0.004869	-2.017012	0.015606
H	1.075131	-2.016712	0.015706
H	-0.004969	-2.720812	0.834806
H	-0.004869	-2.535912	-0.931494
H	-0.004769	2.841088	-1.145994
$end

$rem
JOBTYPE		SP
EXCHANGE	HF
CORRELATION	pRIMP2
BASIS		cc-pvtz
METHOD		rimp2
AUX_BASIS	rimp2-cc-pvtz
SOLVENT_METHOD	PCM
PURECART	11111
SYMMETRY	false
MEM_TOTAL	110000
SCF_CONVERGENCE = 6
THRESH=10
$end

$solvent
dielectric 4.90
$end
--------------------------------------------------------------

             Standard Nuclear Orientation (Angstroms)
    I     Atom           X                Y                Z
 ----------------------------------------------------------------
    1      C      -0.0048690000    -0.5763120000     0.0156060000
    2      C      -0.0048690000     0.2872880000     1.1150060000
    3      C      -0.0047690000     1.6711880000     0.7923060000
    4      H      -0.0048690000    -0.0815120000     2.1517060000
    5      C      -0.0047690000     1.8918880000    -0.5968940000
    6      S      -0.0048690000     0.3660880000    -1.4711940000
    7      C      -0.0047690000     2.7589880000     1.8302060000
    8      H      -0.0047690000     2.3332880000     2.8523060000
    9      H      -0.8971690000     3.4132880000     1.7418060000
   10      H       0.8876310000     3.4131880000     1.7418060000
   11      C      -0.0048690000    -2.0170120000     0.0156060000
   12      H       1.0751310000    -2.0167120000     0.0157060000
   13      H      -0.0049690000    -2.7208120000     0.8348060000
   14      H      -0.0048690000    -2.5359120000    -0.9314940000
   15      H      -0.0047690000     2.8410880000    -1.1459940000
 ----------------------------------------------------------------

   10    -629.4244415733      7.11e-07  Convergence criterion met
 Total energy in the final basis set =     -629.4244415733
        RIMP2         total energy =      -630.5993897034 a.u.

                    Orbital Energies (a.u.)
 --------------------------------------------------------------

 Alpha MOs
 -- Occupied --
-91.9791 -11.2860 -11.2483 -11.2468 -11.2263 -11.2225 -11.2217  -8.9789
 -6.6599  -6.6593  -6.6587  -1.1601  -1.0564  -0.9971  -0.9425  -0.8825
 -0.7438  -0.7184  -0.6497  -0.5866  -0.5745  -0.5675  -0.5542  -0.5465
 -0.5071  -0.4948  -0.4657  -0.4574  -0.3385  -0.2881

          Ground-State Mulliken Net Atomic Charges

     Atom                 Charge (a.u.)
  ----------------------------------------
      1 C                     0.065659
      2 C                    -0.311120
      3 C                     0.051550
      4 H                     0.175522
      5 C                    -0.282972
      6 S                     0.003017
      7 C                    -0.274439
      8 H                     0.101383
      9 H                     0.107185
     10 H                     0.107370
     11 C                    -0.384285
     12 H                     0.144188
     13 H                     0.165636
     14 H                     0.138242
     15 H                     0.193067
  ----------------------------------------
  Sum of atomic charges =     0.000000

                    Cartesian Multipole Moments
 -----------------------------------------------------------------
    Charge (ESU x 10^10)
                -0.0000
    Dipole Moment (Debye)
         X       0.7472      Y      -0.7729      Z       1.3729
       Tot       1.7437
    Quadrupole Moments (Debye-Ang)
        XX     -54.4150     XY      -1.5685     YY     -41.6713
        XZ       0.0512     YZ       0.2009     ZZ     -48.5762

 Total job time:  156.74s(wall), 155.23s(cpu)
        *  Thank you very much for using Q-Chem.  Have a nice day.  *
