 Q-Chem 5.4, Q-Chem, Inc., Pleasanton, CA (2021)
 Q-Chem 5.4.0 for Intel X86 EM64T Linux

User input:
--------------------------------------------------------------
$molecule
0 1
C	-0.113449	-0.566007	0.017232
C	0.036551	0.284493	1.116632
C	0.276851	1.647393	0.793932
H	-0.027549	-0.078707	2.153332
C	0.315251	1.864693	-0.595268
S	0.050251	0.362093	-1.469568
C	0.465751	2.718593	1.831832
H	0.391851	2.299393	2.853932
H	-0.299449	3.517893	1.743432
H	1.458251	3.207893	1.743432
C	-0.113449	-2.006707	0.017232
H	-1.128249	-2.006907	-0.352268
H	-0.393649	-2.710507	0.787032
H	0.210451	-2.525607	-0.872768
H	0.480051	2.799393	-1.144368
$end

$rem
JOBTYPE		SP
EXCHANGE	HF
CORRELATION	pRIMP2
BASIS		cc-pvtz
METHOD		rimp2
AUX_BASIS	rimp2-cc-pvtz
SOLVENT_METHOD	PCM
PURECART	11111
SYMMETRY	false
MEM_TOTAL	110000
SCF_CONVERGENCE = 6
THRESH=10
$end

$solvent
dielectric 4.90
$end
--------------------------------------------------------------

   10    -629.4203825460      6.71e-07  Convergence criterion met
 Total energy in the final basis set =     -629.4203825460
        RIMP2         total energy =      -630.5963183305 a.u.
 Total job time:  157.06s(wall), 154.77s(cpu)
        *  Thank you very much for using Q-Chem.  Have a nice day.  *
 Q-Chem 5.4, Q-Chem, Inc., Pleasanton, CA (2021)
 Q-Chem 5.4.0 for Intel X86 EM64T Linux

User input:
--------------------------------------------------------------
$molecule
0 1
C	-0.113449	-0.566007	0.017232
C	0.036551	0.284493	1.116632
C	0.276851	1.647393	0.793932
H	-0.027549	-0.078707	2.153332
C	0.315251	1.864693	-0.595268
S	0.050251	0.362093	-1.469568
C	0.465751	2.718593	1.831832
H	0.391851	2.299393	2.853932
H	-0.299449	3.517893	1.743432
H	1.458251	3.207893	1.743432
C	-0.113449	-2.006707	0.017232
H	-1.128249	-2.006907	-0.352268
H	-0.393649	-2.710507	0.787032
H	0.210451	-2.525607	-0.872768
H	0.480051	2.799393	-1.144368
$end

$rem
JOBTYPE		SP
EXCHANGE	HF
CORRELATION	pRIMP2
BASIS		cc-pvtz
METHOD		rimp2
AUX_BASIS	rimp2-cc-pvtz
SOLVENT_METHOD	PCM
PURECART	11111
SYMMETRY	false
MEM_TOTAL	110000
SCF_CONVERGENCE = 6
THRESH=10
$end

$solvent
dielectric 4.90
$end
--------------------------------------------------------------

             Standard Nuclear Orientation (Angstroms)
    I     Atom           X                Y                Z
 ----------------------------------------------------------------
    1      C      -0.1134490000    -0.5660070000     0.0172320000
    2      C       0.0365510000     0.2844930000     1.1166320000
    3      C       0.2768510000     1.6473930000     0.7939320000
    4      H      -0.0275490000    -0.0787070000     2.1533320000
    5      C       0.3152510000     1.8646930000    -0.5952680000
    6      S       0.0502510000     0.3620930000    -1.4695680000
    7      C       0.4657510000     2.7185930000     1.8318320000
    8      H       0.3918510000     2.2993930000     2.8539320000
    9      H      -0.2994490000     3.5178930000     1.7434320000
   10      H       1.4582510000     3.2078930000     1.7434320000
   11      C      -0.1134490000    -2.0067070000     0.0172320000
   12      H      -1.1282490000    -2.0069070000    -0.3522680000
   13      H      -0.3936490000    -2.7105070000     0.7870320000
   14      H       0.2104510000    -2.5256070000    -0.8727680000
   15      H       0.4800510000     2.7993930000    -1.1443680000
 ----------------------------------------------------------------

   10    -629.4203825460      6.71e-07  Convergence criterion met
 Total energy in the final basis set =     -629.4203825460
        RIMP2         total energy =      -630.5963183305 a.u.

                    Orbital Energies (a.u.)
 --------------------------------------------------------------

 Alpha MOs
 -- Occupied --
-91.9789 -11.2829 -11.2508 -11.2467 -11.2263 -11.2236 -11.2204  -8.9787
 -6.6598  -6.6592  -6.6586  -1.1602  -1.0559  -0.9963  -0.9438  -0.8822
 -0.7448  -0.7182  -0.6488  -0.5876  -0.5744  -0.5673  -0.5527  -0.5470
 -0.5082  -0.4929  -0.4638  -0.4561  -0.3387  -0.2895

          Ground-State Mulliken Net Atomic Charges

     Atom                 Charge (a.u.)
  ----------------------------------------
      1 C                     0.047467
      2 C                    -0.284220
      3 C                     0.041251
      4 H                     0.179244
      5 C                    -0.271580
      6 S                    -0.004025
      7 C                    -0.273722
      8 H                     0.101292
      9 H                     0.107131
     10 H                     0.107133
     11 C                    -0.380334
     12 H                     0.134532
     13 H                     0.163668
     14 H                     0.137989
     15 H                     0.194173
  ----------------------------------------
  Sum of atomic charges =     0.000000

                    Cartesian Multipole Moments
 -----------------------------------------------------------------
    Charge (ESU x 10^10)
                -0.0000
    Dipole Moment (Debye)
         X      -0.4720      Y      -0.5924      Z       1.1627
       Tot       1.3876
    Quadrupole Moments (Debye-Ang)
        XX     -53.9467     XY       3.0051     YY     -42.0349
        XZ      -0.1716     YZ       0.6598     ZZ     -48.5929

 Total job time:  157.45s(wall), 155.45s(cpu)
        *  Thank you very much for using Q-Chem.  Have a nice day.  *
