 Q-Chem 5.4, Q-Chem, Inc., Pleasanton, CA (2021)
 Q-Chem 5.4.0 for Intel X86 EM64T Linux

User input:
--------------------------------------------------------------
$molecule
0 1
C	-0.517444	-0.333974	0.019394
C	0.144156	0.221126	1.118794
C	1.204256	1.110626	0.796094
H	-0.138344	-0.015974	2.155494
C	1.373356	1.252426	-0.593106
S	0.204456	0.271726	-1.467406
C	2.037556	1.809826	1.833994
H	1.711456	1.536226	2.856094
H	1.965156	2.914026	1.745594
H	3.112356	1.546726	1.745594
C	-0.517444	-1.774674	0.019394
H	-0.886744	-1.774374	-0.995506
H	0.252356	-2.478474	-0.260706
H	-1.407444	-2.293574	0.343294
H	2.100456	1.862626	-1.142206
$end

$rem
JOBTYPE		SP
EXCHANGE	HF
CORRELATION	pRIMP2
BASIS		cc-pvtz
METHOD		rimp2
AUX_BASIS	rimp2-cc-pvtz
SOLVENT_METHOD	PCM
PURECART	11111
SYMMETRY	false
MEM_TOTAL	110000
SCF_CONVERGENCE = 6
THRESH=10
$end

$solvent
dielectric 4.90
$end
--------------------------------------------------------------

             Standard Nuclear Orientation (Angstroms)
    I     Atom           X                Y                Z
 ----------------------------------------------------------------
    1      C      -0.5174440000    -0.3339740000     0.0193940000
    2      C       0.1441560000     0.2211260000     1.1187940000
    3      C       1.2042560000     1.1106260000     0.7960940000
    4      H      -0.1383440000    -0.0159740000     2.1554940000
    5      C       1.3733560000     1.2524260000    -0.5931060000
    6      S       0.2044560000     0.2717260000    -1.4674060000
    7      C       2.0375560000     1.8098260000     1.8339940000
    8      H       1.7114560000     1.5362260000     2.8560940000
    9      H       1.9651560000     2.9140260000     1.7455940000
   10      H       3.1123560000     1.5467260000     1.7455940000
   11      C      -0.5174440000    -1.7746740000     0.0193940000
   12      H      -0.8867440000    -1.7743740000    -0.9955060000
   13      H       0.2523560000    -2.4784740000    -0.2607060000
   14      H      -1.4074440000    -2.2935740000     0.3432940000
   15      H       2.1004560000     1.8626260000    -1.1422060000
 ----------------------------------------------------------------

   10    -629.3680579221      9.26e-07  Convergence criterion met
 Total energy in the final basis set =     -629.3680579221
        RIMP2         total energy =      -630.5558270644 a.u.

                    Orbital Energies (a.u.)
 --------------------------------------------------------------

 Alpha MOs
 -- Occupied --
-91.9771 -11.2770 -11.2491 -11.2482 -11.2454 -11.2281 -11.2085  -8.9777
 -6.6585  -6.6577  -6.6574  -1.1690  -1.0552  -0.9952  -0.9444  -0.8801
 -0.7527  -0.7254  -0.6438  -0.5883  -0.5787  -0.5714  -0.5507  -0.5462
 -0.5180  -0.4691  -0.4525  -0.4408  -0.3342  -0.3045

          Ground-State Mulliken Net Atomic Charges

     Atom                 Charge (a.u.)
  ----------------------------------------
      1 C                    -0.079450
      2 C                    -0.156114
      3 C                     0.003224
      4 H                     0.181960
      5 C                    -0.202917
      6 S                     0.007919
      7 C                    -0.269181
      8 H                     0.102079
      9 H                     0.106590
     10 H                     0.104453
     11 C                    -0.360436
     12 H                     0.106233
     13 H                     0.140931
     14 H                     0.117152
     15 H                     0.197557
  ----------------------------------------
  Sum of atomic charges =     0.000000

                    Cartesian Multipole Moments
 -----------------------------------------------------------------
    Charge (ESU x 10^10)
                -0.0000
    Dipole Moment (Debye)
         X       1.7651      Y       0.4174      Z       1.1636
       Tot       2.1550
    Quadrupole Moments (Debye-Ang)
        XX     -48.9560     XY       4.9147     YY     -48.3503
        XZ      -0.1977     YZ       0.9144     ZZ     -48.1835

 Total job time:  159.37s(wall), 157.90s(cpu)
        *  Thank you very much for using Q-Chem.  Have a nice day.  *
