 Q-Chem 5.4, Q-Chem, Inc., Pleasanton, CA (2021)
 Q-Chem 5.4.0 for Intel X86 EM64T Linux

User input:
--------------------------------------------------------------
$molecule
0 1
C	0.004660	-0.576312	0.013624
C	0.004660	0.287288	1.113024
C	0.004760	1.671188	0.790324
H	0.004660	-0.081512	2.149724
C	0.004760	1.891888	-0.598876
S	0.004660	0.366088	-1.473176
C	0.004760	2.758988	1.828224
H	0.004760	2.333288	2.850324
H	-0.887640	3.413288	1.739824
H	0.897160	3.413188	1.739824
C	0.004660	-2.017012	0.013624
H	-1.058940	-2.016712	0.201024
H	-0.137540	-2.720812	-0.793176
H	0.169160	-2.535912	0.946324
H	0.004760	2.841088	-1.147976
$end

$rem
JOBTYPE		SP
EXCHANGE	HF
CORRELATION	pRIMP2
BASIS		cc-pvtz
METHOD		rimp2
AUX_BASIS	rimp2-cc-pvtz
SOLVENT_METHOD	PCM
PURECART	11111
SYMMETRY	false
MEM_TOTAL	110000
SCF_CONVERGENCE = 6
THRESH=10
$end

$solvent
dielectric 4.90
$end
--------------------------------------------------------------

   10    -629.4247475452      6.95e-07  Convergence criterion met
 Total energy in the final basis set =     -629.4247475452
        RIMP2         total energy =      -630.6001457497 a.u.
 Total job time:  156.44s(wall), 155.25s(cpu)
        *  Thank you very much for using Q-Chem.  Have a nice day.  *
 Q-Chem 5.4, Q-Chem, Inc., Pleasanton, CA (2021)
 Q-Chem 5.4.0 for Intel X86 EM64T Linux

User input:
--------------------------------------------------------------
$molecule
0 1
C	0.004660	-0.576312	0.013624
C	0.004660	0.287288	1.113024
C	0.004760	1.671188	0.790324
H	0.004660	-0.081512	2.149724
C	0.004760	1.891888	-0.598876
S	0.004660	0.366088	-1.473176
C	0.004760	2.758988	1.828224
H	0.004760	2.333288	2.850324
H	-0.887640	3.413288	1.739824
H	0.897160	3.413188	1.739824
C	0.004660	-2.017012	0.013624
H	-1.058940	-2.016712	0.201024
H	-0.137540	-2.720812	-0.793176
H	0.169160	-2.535912	0.946324
H	0.004760	2.841088	-1.147976
$end

$rem
JOBTYPE		SP
EXCHANGE	HF
CORRELATION	pRIMP2
BASIS		cc-pvtz
METHOD		rimp2
AUX_BASIS	rimp2-cc-pvtz
SOLVENT_METHOD	PCM
PURECART	11111
SYMMETRY	false
MEM_TOTAL	110000
SCF_CONVERGENCE = 6
THRESH=10
$end

$solvent
dielectric 4.90
$end
--------------------------------------------------------------

             Standard Nuclear Orientation (Angstroms)
    I     Atom           X                Y                Z
 ----------------------------------------------------------------
    1      C       0.0046600000    -0.5763120000     0.0136240000
    2      C       0.0046600000     0.2872880000     1.1130240000
    3      C       0.0047600000     1.6711880000     0.7903240000
    4      H       0.0046600000    -0.0815120000     2.1497240000
    5      C       0.0047600000     1.8918880000    -0.5988760000
    6      S       0.0046600000     0.3660880000    -1.4731760000
    7      C       0.0047600000     2.7589880000     1.8282240000
    8      H       0.0047600000     2.3332880000     2.8503240000
    9      H      -0.8876400000     3.4132880000     1.7398240000
   10      H       0.8971600000     3.4131880000     1.7398240000
   11      C       0.0046600000    -2.0170120000     0.0136240000
   12      H      -1.0589400000    -2.0167120000     0.2010240000
   13      H      -0.1375400000    -2.7208120000    -0.7931760000
   14      H       0.1691600000    -2.5359120000     0.9463240000
   15      H       0.0047600000     2.8410880000    -1.1479760000
 ----------------------------------------------------------------

   10    -629.4247475452      6.95e-07  Convergence criterion met
 Total energy in the final basis set =     -629.4247475452
        RIMP2         total energy =      -630.6001457497 a.u.

                    Orbital Energies (a.u.)
 --------------------------------------------------------------

 Alpha MOs
 -- Occupied --
-91.9778 -11.2867 -11.2481 -11.2468 -11.2265 -11.2231 -11.2224  -8.9776
 -6.6586  -6.6580  -6.6574  -1.1601  -1.0563  -0.9978  -0.9413  -0.8830
 -0.7432  -0.7188  -0.6479  -0.5897  -0.5742  -0.5710  -0.5541  -0.5451
 -0.5080  -0.4928  -0.4654  -0.4559  -0.3381  -0.2883

          Ground-State Mulliken Net Atomic Charges

     Atom                 Charge (a.u.)
  ----------------------------------------
      1 C                     0.073090
      2 C                    -0.311987
      3 C                     0.049367
      4 H                     0.175378
      5 C                    -0.281207
      6 S                    -0.000478
      7 C                    -0.275049
      8 H                     0.101249
      9 H                     0.107438
     10 H                     0.107324
     11 C                    -0.387651
     12 H                     0.145046
     13 H                     0.163605
     14 H                     0.141817
     15 H                     0.192059
  ----------------------------------------
  Sum of atomic charges =     0.000000

                    Cartesian Multipole Moments
 -----------------------------------------------------------------
    Charge (ESU x 10^10)
                -0.0000
    Dipole Moment (Debye)
         X      -0.7368      Y      -0.7993      Z       1.5292
       Tot       1.8762
    Quadrupole Moments (Debye-Ang)
        XX     -54.3817     XY       1.5781     YY     -41.7007
        XZ       0.0739     YZ       0.2463     ZZ     -48.6098

 Total job time:  156.91s(wall), 155.69s(cpu)
        *  Thank you very much for using Q-Chem.  Have a nice day.  *
