 Q-Chem 5.4, Q-Chem, Inc., Pleasanton, CA (2021)
 Q-Chem 5.4.0 for Intel X86 EM64T Linux

User input:
--------------------------------------------------------------
$molecule
0 1
C	-0.232586	-0.535397	0.010180
C	0.062814	0.276103	1.109580
C	0.536114	1.576503	0.786880
H	-0.063286	-0.070397	2.146280
C	0.611614	1.783903	-0.602320
S	0.089714	0.350203	-1.476620
C	0.908214	2.598703	1.824780
H	0.762614	2.198703	2.846880
H	0.293414	3.518703	1.736380
H	1.970614	2.908303	1.736380
C	-0.232586	-1.976097	0.010180
H	-0.232686	-1.975797	1.090180
H	-1.051786	-2.679897	0.010080
H	0.714514	-2.494997	0.010180
H	0.936314	2.675903	-1.151420
$end

$rem
JOBTYPE		SP
EXCHANGE	HF
CORRELATION	pRIMP2
BASIS		cc-pvtz
METHOD		rimp2
AUX_BASIS	rimp2-cc-pvtz
SOLVENT_METHOD	PCM
PURECART	11111
SYMMETRY	false
MEM_TOTAL	110000
SCF_CONVERGENCE = 6
THRESH=10
$end

$solvent
dielectric 4.90
$end
--------------------------------------------------------------

   10    -629.4176257593      4.89e-07  Convergence criterion met
 Total energy in the final basis set =     -629.4176257593
        RIMP2         total energy =      -630.5971713533 a.u.
 Total job time:  158.72s(wall), 156.16s(cpu)
        *  Thank you very much for using Q-Chem.  Have a nice day.  *
 Q-Chem 5.4, Q-Chem, Inc., Pleasanton, CA (2021)
 Q-Chem 5.4.0 for Intel X86 EM64T Linux

User input:
--------------------------------------------------------------
$molecule
0 1
C	-0.232586	-0.535397	0.010180
C	0.062814	0.276103	1.109580
C	0.536114	1.576503	0.786880
H	-0.063286	-0.070397	2.146280
C	0.611614	1.783903	-0.602320
S	0.089714	0.350203	-1.476620
C	0.908214	2.598703	1.824780
H	0.762614	2.198703	2.846880
H	0.293414	3.518703	1.736380
H	1.970614	2.908303	1.736380
C	-0.232586	-1.976097	0.010180
H	-0.232686	-1.975797	1.090180
H	-1.051786	-2.679897	0.010080
H	0.714514	-2.494997	0.010180
H	0.936314	2.675903	-1.151420
$end

$rem
JOBTYPE		SP
EXCHANGE	HF
CORRELATION	pRIMP2
BASIS		cc-pvtz
METHOD		rimp2
AUX_BASIS	rimp2-cc-pvtz
SOLVENT_METHOD	PCM
PURECART	11111
SYMMETRY	false
MEM_TOTAL	110000
SCF_CONVERGENCE = 6
THRESH=10
$end

$solvent
dielectric 4.90
$end
--------------------------------------------------------------

             Standard Nuclear Orientation (Angstroms)
    I     Atom           X                Y                Z
 ----------------------------------------------------------------
    1      C      -0.2325860000    -0.5353970000     0.0101800000
    2      C       0.0628140000     0.2761030000     1.1095800000
    3      C       0.5361140000     1.5765030000     0.7868800000
    4      H      -0.0632860000    -0.0703970000     2.1462800000
    5      C       0.6116140000     1.7839030000    -0.6023200000
    6      S       0.0897140000     0.3502030000    -1.4766200000
    7      C       0.9082140000     2.5987030000     1.8247800000
    8      H       0.7626140000     2.1987030000     2.8468800000
    9      H       0.2934140000     3.5187030000     1.7363800000
   10      H       1.9706140000     2.9083030000     1.7363800000
   11      C      -0.2325860000    -1.9760970000     0.0101800000
   12      H      -0.2326860000    -1.9757970000     1.0901800000
   13      H      -1.0517860000    -2.6798970000     0.0100800000
   14      H       0.7145140000    -2.4949970000     0.0101800000
   15      H       0.9363140000     2.6759030000    -1.1514200000
 ----------------------------------------------------------------

   10    -629.4176257593      4.89e-07  Convergence criterion met
 Total energy in the final basis set =     -629.4176257593
        RIMP2         total energy =      -630.5971713533 a.u.

                    Orbital Energies (a.u.)
 --------------------------------------------------------------

 Alpha MOs
 -- Occupied --
-91.9744 -11.2747 -11.2596 -11.2472 -11.2360 -11.2276 -11.2153  -8.9746
 -6.6556  -6.6550  -6.6545  -1.1623  -1.0540  -0.9997  -0.9389  -0.8843
 -0.7426  -0.7252  -0.6476  -0.5920  -0.5784  -0.5662  -0.5591  -0.5419
 -0.5113  -0.4826  -0.4678  -0.4360  -0.3376  -0.3045

          Ground-State Mulliken Net Atomic Charges

     Atom                 Charge (a.u.)
  ----------------------------------------
      1 C                     0.043461
      2 C                    -0.270301
      3 C                     0.038318
      4 H                     0.176888
      5 C                    -0.247990
      6 S                    -0.006440
      7 C                    -0.271524
      8 H                     0.101196
      9 H                     0.107064
     10 H                     0.107080
     11 C                    -0.365180
     12 H                     0.118621
     13 H                     0.145159
     14 H                     0.130409
     15 H                     0.193240
  ----------------------------------------
  Sum of atomic charges =     0.000000

                    Cartesian Multipole Moments
 -----------------------------------------------------------------
    Charge (ESU x 10^10)
                -0.0000
    Dipole Moment (Debye)
         X       0.5727      Y      -0.0052      Z       2.1696
       Tot       2.2439
    Quadrupole Moments (Debye-Ang)
        XX     -52.7400     XY       2.9435     YY     -43.3763
        XZ      -0.0851     YZ      -1.0981     ZZ     -48.9006

 Total job time:  158.68s(wall), 157.09s(cpu)
        *  Thank you very much for using Q-Chem.  Have a nice day.  *
