 Q-Chem 5.4, Q-Chem, Inc., Pleasanton, CA (2021)
 Q-Chem 5.4.0 for Intel X86 EM64T Linux

User input:
--------------------------------------------------------------
$molecule
0 1
C	-0.288105	-0.512744	0.019710
C	0.076895	0.269956	1.119110
C	0.661795	1.524156	0.796410
H	-0.079005	-0.064344	2.155810
C	0.755095	1.724156	-0.592790
S	0.110195	0.341356	-1.467090
C	1.121495	2.509956	1.834310
H	0.941595	2.124256	2.856410
H	0.589195	3.480156	1.745910
H	2.206795	2.725856	1.745910
C	-0.288105	-1.953444	0.019710
H	-0.100405	-1.953644	-1.043890
H	-1.094805	-2.657244	-0.122590
H	0.644595	-2.472344	0.184210
H	1.156195	2.584456	-1.141890
$end

$rem
JOBTYPE		SP
EXCHANGE	HF
CORRELATION	pRIMP2
BASIS		cc-pvtz
METHOD		rimp2
AUX_BASIS	rimp2-cc-pvtz
SOLVENT_METHOD	PCM
PURECART	11111
SYMMETRY	false
MEM_TOTAL	110000
SCF_CONVERGENCE = 6
THRESH=10
$end

$solvent
dielectric 4.90
$end
--------------------------------------------------------------

             Standard Nuclear Orientation (Angstroms)
    I     Atom           X                Y                Z
 ----------------------------------------------------------------
    1      C      -0.2881050000    -0.5127440000     0.0197100000
    2      C       0.0768950000     0.2699560000     1.1191100000
    3      C       0.6617950000     1.5241560000     0.7964100000
    4      H      -0.0790050000    -0.0643440000     2.1558100000
    5      C       0.7550950000     1.7241560000    -0.5927900000
    6      S       0.1101950000     0.3413560000    -1.4670900000
    7      C       1.1214950000     2.5099560000     1.8343100000
    8      H       0.9415950000     2.1242560000     2.8564100000
    9      H       0.5891950000     3.4801560000     1.7459100000
   10      H       2.2067950000     2.7258560000     1.7459100000
   11      C      -0.2881050000    -1.9534440000     0.0197100000
   12      H      -0.1004050000    -1.9536440000    -1.0438900000
   13      H      -1.0948050000    -2.6572440000    -0.1225900000
   14      H       0.6445950000    -2.4723440000     0.1842100000
   15      H       1.1561950000     2.5844560000    -1.1418900000
 ----------------------------------------------------------------

   10    -629.4081179132      5.38e-07  Convergence criterion met
 Total energy in the final basis set =     -629.4081179132
        RIMP2         total energy =      -630.5886201855 a.u.

                    Orbital Energies (a.u.)
 --------------------------------------------------------------

 Alpha MOs
 -- Occupied --
-91.9788 -11.2706 -11.2611 -11.2471 -11.2325 -11.2271 -11.2141  -8.9790
 -6.6599  -6.6593  -6.6587  -1.1630  -1.0554  -0.9947  -0.9457  -0.8808
 -0.7490  -0.7198  -0.6466  -0.5914  -0.5763  -0.5656  -0.5527  -0.5477
 -0.5105  -0.4820  -0.4645  -0.4427  -0.3374  -0.3034

          Ground-State Mulliken Net Atomic Charges

     Atom                 Charge (a.u.)
  ----------------------------------------
      1 C                     0.031136
      2 C                    -0.263660
      3 C                     0.047228
      4 H                     0.178568
      5 C                    -0.253004
      6 S                    -0.003227
      7 C                    -0.271647
      8 H                     0.101986
      9 H                     0.107012
     10 H                     0.106264
     11 C                    -0.366411
     12 H                     0.116685
     13 H                     0.142004
     14 H                     0.131625
     15 H                     0.195441
  ----------------------------------------
  Sum of atomic charges =     0.000000

                    Cartesian Multipole Moments
 -----------------------------------------------------------------
    Charge (ESU x 10^10)
                -0.0000
    Dipole Moment (Debye)
         X       0.8583      Y       0.0902      Z       0.9091
       Tot       1.2535
    Quadrupole Moments (Debye-Ang)
        XX     -52.3491     XY       3.2579     YY     -44.0711
        XZ       0.3110     YZ       1.4170     ZZ     -48.6788

 Total job time:  157.82s(wall), 155.36s(cpu)
        *  Thank you very much for using Q-Chem.  Have a nice day.  *
