 Q-Chem 5.4, Q-Chem, Inc., Pleasanton, CA (2021)
 Q-Chem 5.4.0 for Intel X86 EM64T Linux

User input:
--------------------------------------------------------------
$molecule
0 1
C	-0.055231	-0.573727	0.017956
C	0.020069	0.286573	1.117356
C	0.140669	1.665273	0.794656
H	-0.012031	-0.080827	2.154056
C	0.159969	1.885073	-0.594544
S	0.026969	0.365073	-1.468844
C	0.235569	2.748873	1.832556
H	0.198469	2.324773	2.854656
H	-0.596431	3.478373	1.744156
H	1.181569	3.322873	1.744156
C	-0.055231	-2.014427	0.017956
H	-0.990431	-2.014627	-0.522144
H	-0.464831	-2.718227	0.727356
H	0.418369	-2.533327	-0.802244
H	0.242669	2.830673	-1.143644
$end

$rem
JOBTYPE		SP
EXCHANGE	HF
CORRELATION	pRIMP2
BASIS		cc-pvtz
METHOD		rimp2
AUX_BASIS	rimp2-cc-pvtz
SOLVENT_METHOD	PCM
PURECART	11111
SYMMETRY	false
MEM_TOTAL	110000
SCF_CONVERGENCE = 6
THRESH=10
$end

$solvent
dielectric 4.90
$end
--------------------------------------------------------------

             Standard Nuclear Orientation (Angstroms)
    I     Atom           X                Y                Z
 ----------------------------------------------------------------
    1      C      -0.0552310000    -0.5737270000     0.0179560000
    2      C       0.0200690000     0.2865730000     1.1173560000
    3      C       0.1406690000     1.6652730000     0.7946560000
    4      H      -0.0120310000    -0.0808270000     2.1540560000
    5      C       0.1599690000     1.8850730000    -0.5945440000
    6      S       0.0269690000     0.3650730000    -1.4688440000
    7      C       0.2355690000     2.7488730000     1.8325560000
    8      H       0.1984690000     2.3247730000     2.8546560000
    9      H      -0.5964310000     3.4783730000     1.7441560000
   10      H       1.1815690000     3.3228730000     1.7441560000
   11      C      -0.0552310000    -2.0144270000     0.0179560000
   12      H      -0.9904310000    -2.0146270000    -0.5221440000
   13      H      -0.4648310000    -2.7182270000     0.7273560000
   14      H       0.4183690000    -2.5333270000    -0.8022440000
   15      H       0.2426690000     2.8306730000    -1.1436440000
 ----------------------------------------------------------------

   10    -629.4225159944      6.64e-07  Convergence criterion met
 Total energy in the final basis set =     -629.4225159944
        RIMP2         total energy =      -630.5981131206 a.u.

                    Orbital Energies (a.u.)
 --------------------------------------------------------------

 Alpha MOs
 -- Occupied --
-91.9790 -11.2825 -11.2516 -11.2467 -11.2263 -11.2242 -11.2202  -8.9789
 -6.6599  -6.6593  -6.6587  -1.1603  -1.0560  -0.9961  -0.9444  -0.8820
 -0.7453  -0.7181  -0.6490  -0.5886  -0.5751  -0.5663  -0.5527  -0.5473
 -0.5079  -0.4918  -0.4651  -0.4547  -0.3391  -0.2916

          Ground-State Mulliken Net Atomic Charges

     Atom                 Charge (a.u.)
  ----------------------------------------
      1 C                     0.051710
      2 C                    -0.284076
      3 C                     0.040190
      4 H                     0.180199
      5 C                    -0.267590
      6 S                    -0.005610
      7 C                    -0.273890
      8 H                     0.101360
      9 H                     0.107118
     10 H                     0.107243
     11 C                    -0.378889
     12 H                     0.130529
     13 H                     0.162230
     14 H                     0.135240
     15 H                     0.194237
  ----------------------------------------
  Sum of atomic charges =     0.000000

                    Cartesian Multipole Moments
 -----------------------------------------------------------------
    Charge (ESU x 10^10)
                -0.0000
    Dipole Moment (Debye)
         X      -0.5051      Y      -0.5178      Z       1.0660
       Tot       1.2883
    Quadrupole Moments (Debye-Ang)
        XX     -54.1124     XY       2.1538     YY     -41.8328
        XZ      -0.2604     YZ       0.8861     ZZ     -48.6623

 Total job time:  157.78s(wall), 156.95s(cpu)
        *  Thank you very much for using Q-Chem.  Have a nice day.  *
