 Q-Chem 5.4, Q-Chem, Inc., Pleasanton, CA (2021)
 Q-Chem 5.4.0 for Intel X86 EM64T Linux

User input:
--------------------------------------------------------------
$molecule
0 1
C	-0.584792	-0.237129	0.010946
C	0.163108	0.194671	1.110346
C	1.361608	0.886571	0.787646
H	-0.156292	0.010271	2.147046
C	1.552708	0.996871	-0.601554
S	0.231408	0.234071	-1.475854
C	2.303708	1.430471	1.825546
H	1.935008	1.217571	2.847646
H	2.424108	2.530371	1.737146
H	3.316508	0.984671	1.737146
C	-0.584792	-1.677829	0.010946
H	-1.279092	-1.677529	0.838246
H	-1.212292	-2.381629	-0.515654
H	0.140808	-2.196729	0.619746
H	2.374808	1.471471	-1.150654
$end

$rem
JOBTYPE		SP
EXCHANGE	HF
CORRELATION	pRIMP2
BASIS		cc-pvtz
METHOD		rimp2
AUX_BASIS	rimp2-cc-pvtz
SOLVENT_METHOD	PCM
PURECART	11111
SYMMETRY	false
MEM_TOTAL	110000
SCF_CONVERGENCE = 6
THRESH=10
$end

$solvent
dielectric 4.90
$end
--------------------------------------------------------------

             Standard Nuclear Orientation (Angstroms)
    I     Atom           X                Y                Z
 ----------------------------------------------------------------
    1      C      -0.5847920000    -0.2371290000     0.0109460000
    2      C       0.1631080000     0.1946710000     1.1103460000
    3      C       1.3616080000     0.8865710000     0.7876460000
    4      H      -0.1562920000     0.0102710000     2.1470460000
    5      C       1.5527080000     0.9968710000    -0.6015540000
    6      S       0.2314080000     0.2340710000    -1.4758540000
    7      C       2.3037080000     1.4304710000     1.8255460000
    8      H       1.9350080000     1.2175710000     2.8476460000
    9      H       2.4241080000     2.5303710000     1.7371460000
   10      H       3.3165080000     0.9846710000     1.7371460000
   11      C      -0.5847920000    -1.6778290000     0.0109460000
   12      H      -1.2790920000    -1.6775290000     0.8382460000
   13      H      -1.2122920000    -2.3816290000    -0.5156540000
   14      H       0.1408080000    -2.1967290000     0.6197460000
   15      H       2.3748080000     1.4714710000    -1.1506540000
 ----------------------------------------------------------------

   11    -629.3499047251      4.85e-07  Convergence criterion met
 Total energy in the final basis set =     -629.3499047251
        RIMP2         total energy =      -630.5416583713 a.u.

                    Orbital Energies (a.u.)
 --------------------------------------------------------------

 Alpha MOs
 -- Occupied --
-91.9711 -11.2825 -11.2542 -11.2503 -11.2441 -11.2296 -11.2080  -8.9723
 -6.6531  -6.6521  -6.6520  -1.1736  -1.0560  -1.0008  -0.9350  -0.8836
 -0.7482  -0.7327  -0.6430  -0.5902  -0.5852  -0.5656  -0.5542  -0.5436
 -0.5187  -0.4840  -0.4608  -0.4144  -0.3358  -0.2981

          Ground-State Mulliken Net Atomic Charges

     Atom                 Charge (a.u.)
  ----------------------------------------
      1 C                    -0.094554
      2 C                    -0.133576
      3 C                    -0.019285
      4 H                     0.186157
      5 C                    -0.181915
      6 S                     0.013460
      7 C                    -0.267134
      8 H                     0.102092
      9 H                     0.106995
     10 H                     0.105203
     11 C                    -0.383869
     12 H                     0.108121
     13 H                     0.136963
     14 H                     0.124547
     15 H                     0.196795
  ----------------------------------------
  Sum of atomic charges =     0.000000

                    Cartesian Multipole Moments
 -----------------------------------------------------------------
    Charge (ESU x 10^10)
                -0.0000
    Dipole Moment (Debye)
         X       2.0893      Y       0.1611      Z       2.1774
       Tot       3.0219
    Quadrupole Moments (Debye-Ang)
        XX     -47.5038     XY       5.2001     YY     -50.0416
        XZ      -0.0976     YZ      -0.5333     ZZ     -47.9541

 Total job time:  175.93s(wall), 174.61s(cpu)
        *  Thank you very much for using Q-Chem.  Have a nice day.  *
