 Q-Chem 5.4, Q-Chem, Inc., Pleasanton, CA (2021)
 Q-Chem 5.4.0 for Intel X86 EM64T Linux

User input:
--------------------------------------------------------------
$molecule
0 1
C	-0.236767	-0.535397	0.013912
C	0.058633	0.276103	1.113312
C	0.531933	1.576503	0.790612
H	-0.067467	-0.070397	2.150012
C	0.607433	1.783903	-0.598588
S	0.085533	0.350203	-1.472888
C	0.904033	2.598703	1.828512
H	0.758433	2.198703	2.850612
H	0.289233	3.518703	1.740112
H	1.966433	2.908303	1.740112
C	-0.236767	-1.976097	0.013912
H	0.778033	-1.975797	0.383412
H	-0.516967	-2.679897	0.783712
H	0.087133	-2.494997	-0.876088
H	0.932133	2.675903	-1.147688
$end

$rem
JOBTYPE		SP
EXCHANGE	HF
CORRELATION	pRIMP2
BASIS		cc-pvtz
METHOD		rimp2
AUX_BASIS	rimp2-cc-pvtz
SOLVENT_METHOD	PCM
PURECART	11111
SYMMETRY	false
MEM_TOTAL	110000
SCF_CONVERGENCE = 6
THRESH=10
$end

$solvent
dielectric 4.90
$end
--------------------------------------------------------------

   10    -629.4167302978      6.56e-07  Convergence criterion met
 Total energy in the final basis set =     -629.4167302978
        RIMP2         total energy =      -630.5941489884 a.u.
 Total job time:  159.24s(wall), 157.19s(cpu)
        *  Thank you very much for using Q-Chem.  Have a nice day.  *
 Q-Chem 5.4, Q-Chem, Inc., Pleasanton, CA (2021)
 Q-Chem 5.4.0 for Intel X86 EM64T Linux

User input:
--------------------------------------------------------------
$molecule
0 1
C	-0.236767	-0.535397	0.013912
C	0.058633	0.276103	1.113312
C	0.531933	1.576503	0.790612
H	-0.067467	-0.070397	2.150012
C	0.607433	1.783903	-0.598588
S	0.085533	0.350203	-1.472888
C	0.904033	2.598703	1.828512
H	0.758433	2.198703	2.850612
H	0.289233	3.518703	1.740112
H	1.966433	2.908303	1.740112
C	-0.236767	-1.976097	0.013912
H	0.778033	-1.975797	0.383412
H	-0.516967	-2.679897	0.783712
H	0.087133	-2.494997	-0.876088
H	0.932133	2.675903	-1.147688
$end

$rem
JOBTYPE		SP
EXCHANGE	HF
CORRELATION	pRIMP2
BASIS		cc-pvtz
METHOD		rimp2
AUX_BASIS	rimp2-cc-pvtz
SOLVENT_METHOD	PCM
PURECART	11111
SYMMETRY	false
MEM_TOTAL	110000
SCF_CONVERGENCE = 6
THRESH=10
$end

$solvent
dielectric 4.90
$end
--------------------------------------------------------------

             Standard Nuclear Orientation (Angstroms)
    I     Atom           X                Y                Z
 ----------------------------------------------------------------
    1      C      -0.2367670000    -0.5353970000     0.0139120000
    2      C       0.0586330000     0.2761030000     1.1133120000
    3      C       0.5319330000     1.5765030000     0.7906120000
    4      H      -0.0674670000    -0.0703970000     2.1500120000
    5      C       0.6074330000     1.7839030000    -0.5985880000
    6      S       0.0855330000     0.3502030000    -1.4728880000
    7      C       0.9040330000     2.5987030000     1.8285120000
    8      H       0.7584330000     2.1987030000     2.8506120000
    9      H       0.2892330000     3.5187030000     1.7401120000
   10      H       1.9664330000     2.9083030000     1.7401120000
   11      C      -0.2367670000    -1.9760970000     0.0139120000
   12      H       0.7780330000    -1.9757970000     0.3834120000
   13      H      -0.5169670000    -2.6798970000     0.7837120000
   14      H       0.0871330000    -2.4949970000    -0.8760880000
   15      H       0.9321330000     2.6759030000    -1.1476880000
 ----------------------------------------------------------------

   10    -629.4167302978      6.56e-07  Convergence criterion met
 Total energy in the final basis set =     -629.4167302978
        RIMP2         total energy =      -630.5941489884 a.u.

                    Orbital Energies (a.u.)
 --------------------------------------------------------------

 Alpha MOs
 -- Occupied --
-91.9795 -11.2837 -11.2502 -11.2475 -11.2267 -11.2232 -11.2207  -8.9792
 -6.6602  -6.6596  -6.6590  -1.1620  -1.0561  -0.9976  -0.9403  -0.8825
 -0.7435  -0.7201  -0.6490  -0.5877  -0.5749  -0.5676  -0.5562  -0.5451
 -0.5072  -0.4903  -0.4663  -0.4568  -0.3376  -0.2887

          Ground-State Mulliken Net Atomic Charges

     Atom                 Charge (a.u.)
  ----------------------------------------
      1 C                     0.049792
      2 C                    -0.293013
      3 C                     0.048607
      4 H                     0.173750
      5 C                    -0.279406
      6 S                     0.006086
      7 C                    -0.272173
      8 H                     0.101443
      9 H                     0.107486
     10 H                     0.106648
     11 C                    -0.385666
     12 H                     0.150967
     13 H                     0.156786
     14 H                     0.135855
     15 H                     0.192840
  ----------------------------------------
  Sum of atomic charges =     0.000000

                    Cartesian Multipole Moments
 -----------------------------------------------------------------
    Charge (ESU x 10^10)
                -0.0000
    Dipole Moment (Debye)
         X       1.0794      Y      -0.6585      Z       1.6330
       Tot       2.0653
    Quadrupole Moments (Debye-Ang)
        XX     -53.6868     XY       1.4920     YY     -43.0716
        XZ      -0.0526     YZ      -0.3683     ZZ     -48.5064

 Total job time:  157.19s(wall), 155.92s(cpu)
        *  Thank you very much for using Q-Chem.  Have a nice day.  *
