 Q-Chem 5.4, Q-Chem, Inc., Pleasanton, CA (2021)
 Q-Chem 5.4.0 for Intel X86 EM64T Linux

User input:
--------------------------------------------------------------
$molecule
0 1
C	-0.228097	-0.535397	0.012109
C	0.067303	0.276103	1.111509
C	0.540603	1.576503	0.788809
H	-0.058797	-0.070397	2.148209
C	0.616103	1.783903	-0.600391
S	0.094203	0.350203	-1.474691
C	0.912703	2.598703	1.826709
H	0.767103	2.198703	2.848809
H	0.297903	3.518703	1.738309
H	1.975103	2.908303	1.738309
C	-0.228097	-1.976097	0.012109
H	-1.163497	-1.975797	0.552009
H	-0.637597	-2.679897	-0.697391
H	0.245503	-2.494997	0.832309
H	0.940803	2.675903	-1.149491
$end

$rem
JOBTYPE		SP
EXCHANGE	HF
CORRELATION	pRIMP2
BASIS		cc-pvtz
METHOD		rimp2
AUX_BASIS	rimp2-cc-pvtz
SOLVENT_METHOD	PCM
PURECART	11111
SYMMETRY	false
MEM_TOTAL	110000
SCF_CONVERGENCE = 6
THRESH=10
$end

$solvent
dielectric 4.90
$end
--------------------------------------------------------------

   10    -629.4142514686      5.92e-07  Convergence criterion met
 Total energy in the final basis set =     -629.4142514686
        RIMP2         total energy =      -630.5933507813 a.u.
 Total job time:  160.88s(wall), 158.74s(cpu)
        *  Thank you very much for using Q-Chem.  Have a nice day.  *
 Q-Chem 5.4, Q-Chem, Inc., Pleasanton, CA (2021)
 Q-Chem 5.4.0 for Intel X86 EM64T Linux

User input:
--------------------------------------------------------------
$molecule
0 1
C	-0.228097	-0.535397	0.012109
C	0.067303	0.276103	1.111509
C	0.540603	1.576503	0.788809
H	-0.058797	-0.070397	2.148209
C	0.616103	1.783903	-0.600391
S	0.094203	0.350203	-1.474691
C	0.912703	2.598703	1.826709
H	0.767103	2.198703	2.848809
H	0.297903	3.518703	1.738309
H	1.975103	2.908303	1.738309
C	-0.228097	-1.976097	0.012109
H	-1.163497	-1.975797	0.552009
H	-0.637597	-2.679897	-0.697391
H	0.245503	-2.494997	0.832309
H	0.940803	2.675903	-1.149491
$end

$rem
JOBTYPE		SP
EXCHANGE	HF
CORRELATION	pRIMP2
BASIS		cc-pvtz
METHOD		rimp2
AUX_BASIS	rimp2-cc-pvtz
SOLVENT_METHOD	PCM
PURECART	11111
SYMMETRY	false
MEM_TOTAL	110000
SCF_CONVERGENCE = 6
THRESH=10
$end

$solvent
dielectric 4.90
$end
--------------------------------------------------------------

             Standard Nuclear Orientation (Angstroms)
    I     Atom           X                Y                Z
 ----------------------------------------------------------------
    1      C      -0.2280970000    -0.5353970000     0.0121090000
    2      C       0.0673030000     0.2761030000     1.1115090000
    3      C       0.5406030000     1.5765030000     0.7888090000
    4      H      -0.0587970000    -0.0703970000     2.1482090000
    5      C       0.6161030000     1.7839030000    -0.6003910000
    6      S       0.0942030000     0.3502030000    -1.4746910000
    7      C       0.9127030000     2.5987030000     1.8267090000
    8      H       0.7671030000     2.1987030000     2.8488090000
    9      H       0.2979030000     3.5187030000     1.7383090000
   10      H       1.9751030000     2.9083030000     1.7383090000
   11      C      -0.2280970000    -1.9760970000     0.0121090000
   12      H      -1.1634970000    -1.9757970000     0.5520090000
   13      H      -0.6375970000    -2.6798970000    -0.6973910000
   14      H       0.2455030000    -2.4949970000     0.8323090000
   15      H       0.9408030000     2.6759030000    -1.1494910000
 ----------------------------------------------------------------

   10    -629.4142514686      5.92e-07  Convergence criterion met
 Total energy in the final basis set =     -629.4142514686
        RIMP2         total energy =      -630.5933507813 a.u.

                    Orbital Energies (a.u.)
 --------------------------------------------------------------

 Alpha MOs
 -- Occupied --
-91.9757 -11.2801 -11.2527 -11.2475 -11.2289 -11.2269 -11.2180  -8.9758
 -6.6567  -6.6561  -6.6555  -1.1608  -1.0549  -0.9982  -0.9403  -0.8835
 -0.7429  -0.7208  -0.6467  -0.5895  -0.5753  -0.5681  -0.5570  -0.5437
 -0.5103  -0.4924  -0.4619  -0.4474  -0.3374  -0.2909

          Ground-State Mulliken Net Atomic Charges

     Atom                 Charge (a.u.)
  ----------------------------------------
      1 C                     0.055982
      2 C                    -0.305780
      3 C                     0.051351
      4 H                     0.175867
      5 C                    -0.266117
      6 S                     0.000666
      7 C                    -0.272962
      8 H                     0.101203
      9 H                     0.107177
     10 H                     0.107207
     11 C                    -0.383612
     12 H                     0.135973
     13 H                     0.159713
     14 H                     0.142168
     15 H                     0.191162
  ----------------------------------------
  Sum of atomic charges =     0.000000

                    Cartesian Multipole Moments
 -----------------------------------------------------------------
    Charge (ESU x 10^10)
                -0.0000
    Dipole Moment (Debye)
         X      -0.1821      Y      -0.4947      Z       1.8301
       Tot       1.9046
    Quadrupole Moments (Debye-Ang)
        XX     -52.9721     XY       4.2640     YY     -43.1221
        XZ       0.3215     YZ      -0.2782     ZZ     -48.5998

 Total job time:  158.23s(wall), 156.48s(cpu)
        *  Thank you very much for using Q-Chem.  Have a nice day.  *
