 Q-Chem 5.4, Q-Chem, Inc., Pleasanton, CA (2021)
 Q-Chem 5.4.0 for Intel X86 EM64T Linux

User input:
--------------------------------------------------------------
$molecule
0 1
C	-0.054293	-0.573727	0.015607
C	0.021007	0.286573	1.115007
C	0.141607	1.665273	0.792307
H	-0.011093	-0.080827	2.151707
C	0.160907	1.885073	-0.596893
S	0.027907	0.365073	-1.471193
C	0.236507	2.748873	1.830207
H	0.199407	2.324773	2.852307
H	-0.595493	3.478373	1.741807
H	1.182507	3.322873	1.741807
C	-0.054293	-2.014427	0.015607
H	-1.134293	-2.014627	0.015507
H	-0.054393	-2.718227	0.834807
H	-0.054293	-2.533327	-0.931493
H	0.243607	2.830673	-1.145993
$end

$rem
JOBTYPE		SP
EXCHANGE	HF
CORRELATION	pRIMP2
BASIS		cc-pvtz
METHOD		rimp2
AUX_BASIS	rimp2-cc-pvtz
SOLVENT_METHOD	PCM
PURECART	11111
SYMMETRY	false
MEM_TOTAL	110000
SCF_CONVERGENCE = 6
THRESH=10
$end

$solvent
dielectric 4.90
$end
--------------------------------------------------------------

             Standard Nuclear Orientation (Angstroms)
    I     Atom           X                Y                Z
 ----------------------------------------------------------------
    1      C      -0.0542930000    -0.5737270000     0.0156070000
    2      C       0.0210070000     0.2865730000     1.1150070000
    3      C       0.1416070000     1.6652730000     0.7923070000
    4      H      -0.0110930000    -0.0808270000     2.1517070000
    5      C       0.1609070000     1.8850730000    -0.5968930000
    6      S       0.0279070000     0.3650730000    -1.4711930000
    7      C       0.2365070000     2.7488730000     1.8302070000
    8      H       0.1994070000     2.3247730000     2.8523070000
    9      H      -0.5954930000     3.4783730000     1.7418070000
   10      H       1.1825070000     3.3228730000     1.7418070000
   11      C      -0.0542930000    -2.0144270000     0.0156070000
   12      H      -1.1342930000    -2.0146270000     0.0155070000
   13      H      -0.0543930000    -2.7182270000     0.8348070000
   14      H      -0.0542930000    -2.5333270000    -0.9314930000
   15      H       0.2436070000     2.8306730000    -1.1459930000
 ----------------------------------------------------------------

   10    -629.4230506670      7.03e-07  Convergence criterion met
 Total energy in the final basis set =     -629.4230506670
        RIMP2         total energy =      -630.5983772519 a.u.

                    Orbital Energies (a.u.)
 --------------------------------------------------------------

 Alpha MOs
 -- Occupied --
-91.9790 -11.2853 -11.2486 -11.2468 -11.2262 -11.2221 -11.2219  -8.9788
 -6.6598  -6.6592  -6.6586  -1.1600  -1.0562  -0.9971  -0.9426  -0.8825
 -0.7438  -0.7184  -0.6495  -0.5865  -0.5740  -0.5678  -0.5543  -0.5464
 -0.5076  -0.4947  -0.4645  -0.4573  -0.3384  -0.2880

          Ground-State Mulliken Net Atomic Charges

     Atom                 Charge (a.u.)
  ----------------------------------------
      1 C                     0.063625
      2 C                    -0.308155
      3 C                     0.050419
      4 H                     0.175774
      5 C                    -0.281915
      6 S                     0.003011
      7 C                    -0.274269
      8 H                     0.101349
      9 H                     0.107290
     10 H                     0.107224
     11 C                    -0.383917
     12 H                     0.142269
     13 H                     0.165594
     14 H                     0.138635
     15 H                     0.193066
  ----------------------------------------
  Sum of atomic charges =     0.000000

                    Cartesian Multipole Moments
 -----------------------------------------------------------------
    Charge (ESU x 10^10)
                -0.0000
    Dipole Moment (Debye)
         X      -0.6539      Y      -0.7461      Z       1.3773
       Tot       1.6974
    Quadrupole Moments (Debye-Ang)
        XX     -54.2731     XY       2.3477     YY     -41.7702
        XZ      -0.0185     YZ       0.2001     ZZ     -48.5595

 Total job time:  165.84s(wall), 159.28s(cpu)
        *  Thank you very much for using Q-Chem.  Have a nice day.  *
