 Q-Chem 5.4, Q-Chem, Inc., Pleasanton, CA (2021)
 Q-Chem 5.4.0 for Intel X86 EM64T Linux

User input:
--------------------------------------------------------------
$molecule
0 1
C	-0.236502	-0.535395	0.016960
C	0.058898	0.276105	1.116360
C	0.532198	1.576505	0.793660
H	-0.067202	-0.070395	2.153060
C	0.607698	1.783905	-0.595540
S	0.085798	0.350205	-1.469840
C	0.904298	2.598705	1.831560
H	0.758698	2.198705	2.853660
H	0.289498	3.518705	1.743160
H	1.966698	2.908305	1.743160
C	-0.236502	-1.976095	0.016960
H	0.698898	-1.976295	-0.522940
H	-0.646002	-2.679895	-0.692540
H	0.237098	-2.494995	0.837160
H	0.932398	2.675905	-1.144640
$end

$rem
JOBTYPE		SP
EXCHANGE	HF
CORRELATION	pRIMP2
BASIS		cc-pvtz
METHOD		rimp2
AUX_BASIS	rimp2-cc-pvtz
SOLVENT_METHOD	PCM
PURECART	11111
SYMMETRY	false
MEM_TOTAL	110000
SCF_CONVERGENCE = 6
THRESH=10
$end

$solvent
dielectric 4.90
$end
--------------------------------------------------------------

   10    -629.4180578124      6.81e-07  Convergence criterion met
 Total energy in the final basis set =     -629.4180578124
        RIMP2         total energy =      -630.5949608603 a.u.
 Total job time:  159.27s(wall), 157.45s(cpu)
        *  Thank you very much for using Q-Chem.  Have a nice day.  *
 Q-Chem 5.4, Q-Chem, Inc., Pleasanton, CA (2021)
 Q-Chem 5.4.0 for Intel X86 EM64T Linux

User input:
--------------------------------------------------------------
$molecule
0 1
C	-0.236502	-0.535395	0.016960
C	0.058898	0.276105	1.116360
C	0.532198	1.576505	0.793660
H	-0.067202	-0.070395	2.153060
C	0.607698	1.783905	-0.595540
S	0.085798	0.350205	-1.469840
C	0.904298	2.598705	1.831560
H	0.758698	2.198705	2.853660
H	0.289498	3.518705	1.743160
H	1.966698	2.908305	1.743160
C	-0.236502	-1.976095	0.016960
H	0.698898	-1.976295	-0.522940
H	-0.646002	-2.679895	-0.692540
H	0.237098	-2.494995	0.837160
H	0.932398	2.675905	-1.144640
$end

$rem
JOBTYPE		SP
EXCHANGE	HF
CORRELATION	pRIMP2
BASIS		cc-pvtz
METHOD		rimp2
AUX_BASIS	rimp2-cc-pvtz
SOLVENT_METHOD	PCM
PURECART	11111
SYMMETRY	false
MEM_TOTAL	110000
SCF_CONVERGENCE = 6
THRESH=10
$end

$solvent
dielectric 4.90
$end
--------------------------------------------------------------

             Standard Nuclear Orientation (Angstroms)
    I     Atom           X                Y                Z
 ----------------------------------------------------------------
    1      C      -0.2365020000    -0.5353950000     0.0169600000
    2      C       0.0588980000     0.2761050000     1.1163600000
    3      C       0.5321980000     1.5765050000     0.7936600000
    4      H      -0.0672020000    -0.0703950000     2.1530600000
    5      C       0.6076980000     1.7839050000    -0.5955400000
    6      S       0.0857980000     0.3502050000    -1.4698400000
    7      C       0.9042980000     2.5987050000     1.8315600000
    8      H       0.7586980000     2.1987050000     2.8536600000
    9      H       0.2894980000     3.5187050000     1.7431600000
   10      H       1.9666980000     2.9083050000     1.7431600000
   11      C      -0.2365020000    -1.9760950000     0.0169600000
   12      H       0.6988980000    -1.9762950000    -0.5229400000
   13      H      -0.6460020000    -2.6798950000    -0.6925400000
   14      H       0.2370980000    -2.4949950000     0.8371600000
   15      H       0.9323980000     2.6759050000    -1.1446400000
 ----------------------------------------------------------------

   10    -629.4180578124      6.81e-07  Convergence criterion met
 Total energy in the final basis set =     -629.4180578124
        RIMP2         total energy =      -630.5949608603 a.u.

                    Orbital Energies (a.u.)
 --------------------------------------------------------------

 Alpha MOs
 -- Occupied --
-91.9759 -11.2817 -11.2535 -11.2471 -11.2274 -11.2268 -11.2202  -8.9762
 -6.6572  -6.6566  -6.6560  -1.1624  -1.0565  -0.9959  -0.9432  -0.8816
 -0.7461  -0.7194  -0.6470  -0.5902  -0.5782  -0.5666  -0.5503  -0.5479
 -0.5076  -0.4932  -0.4641  -0.4527  -0.3397  -0.2916

          Ground-State Mulliken Net Atomic Charges

     Atom                 Charge (a.u.)
  ----------------------------------------
      1 C                     0.062198
      2 C                    -0.322080
      3 C                     0.061182
      4 H                     0.179198
      5 C                    -0.269468
      6 S                    -0.005837
      7 C                    -0.271268
      8 H                     0.101446
      9 H                     0.107624
     10 H                     0.107071
     11 C                    -0.373063
     12 H                     0.139393
     13 H                     0.152627
     14 H                     0.138274
     15 H                     0.192704
  ----------------------------------------
  Sum of atomic charges =     0.000000

                    Cartesian Multipole Moments
 -----------------------------------------------------------------
    Charge (ESU x 10^10)
                -0.0000
    Dipole Moment (Debye)
         X       1.0614      Y      -0.5019      Z       1.1508
       Tot       1.6440
    Quadrupole Moments (Debye-Ang)
        XX     -53.5528     XY       1.6650     YY     -42.9948
        XZ       0.4105     YZ       1.0997     ZZ     -48.6462

 Total job time:  156.37s(wall), 155.58s(cpu)
        *  Thank you very much for using Q-Chem.  Have a nice day.  *
