 Q-Chem 5.4, Q-Chem, Inc., Pleasanton, CA (2021)
 Q-Chem 5.4.0 for Intel X86 EM64T Linux

User input:
--------------------------------------------------------------
$molecule
0 1
C	-0.002696	-0.576309	0.010945
C	-0.002696	0.287291	1.110345
C	-0.002596	1.671191	0.787645
H	-0.002696	-0.081509	2.147045
C	-0.002596	1.891891	-0.601555
S	-0.002696	0.366091	-1.475855
C	-0.002596	2.758991	1.825545
H	-0.002596	2.333291	2.847645
H	-0.894996	3.413291	1.737145
H	0.889804	3.413191	1.737145
C	-0.002696	-2.017009	0.010945
H	0.691404	-2.017209	0.838345
H	0.624904	-2.720809	-0.515555
H	-0.728196	-2.535909	0.619745
H	-0.002596	2.841091	-1.150655
$end

$rem
JOBTYPE		SP
EXCHANGE	HF
CORRELATION	pRIMP2
BASIS		cc-pvtz
METHOD		rimp2
AUX_BASIS	rimp2-cc-pvtz
SOLVENT_METHOD	PCM
PURECART	11111
SYMMETRY	false
MEM_TOTAL	110000
SCF_CONVERGENCE = 6
THRESH=10
$end

$solvent
dielectric 4.90
$end
--------------------------------------------------------------

             Standard Nuclear Orientation (Angstroms)
    I     Atom           X                Y                Z
 ----------------------------------------------------------------
    1      C      -0.0026960000    -0.5763090000     0.0109450000
    2      C      -0.0026960000     0.2872910000     1.1103450000
    3      C      -0.0025960000     1.6711910000     0.7876450000
    4      H      -0.0026960000    -0.0815090000     2.1470450000
    5      C      -0.0025960000     1.8918910000    -0.6015550000
    6      S      -0.0026960000     0.3660910000    -1.4758550000
    7      C      -0.0025960000     2.7589910000     1.8255450000
    8      H      -0.0025960000     2.3332910000     2.8476450000
    9      H      -0.8949960000     3.4132910000     1.7371450000
   10      H       0.8898040000     3.4131910000     1.7371450000
   11      C      -0.0026960000    -2.0170090000     0.0109450000
   12      H       0.6914040000    -2.0172090000     0.8383450000
   13      H       0.6249040000    -2.7208090000    -0.5155550000
   14      H      -0.7281960000    -2.5359090000     0.6197450000
   15      H      -0.0025960000     2.8410910000    -1.1506550000
 ----------------------------------------------------------------

   10    -629.4238698648      5.67e-07  Convergence criterion met
 Total energy in the final basis set =     -629.4238698648
        RIMP2         total energy =      -630.6012259372 a.u.

                    Orbital Energies (a.u.)
 --------------------------------------------------------------

 Alpha MOs
 -- Occupied --
-91.9765 -11.2818 -11.2524 -11.2473 -11.2291 -11.2270 -11.2184  -8.9764
 -6.6573  -6.6567  -6.6562  -1.1604  -1.0548  -0.9991  -0.9398  -0.8840
 -0.7422  -0.7215  -0.6484  -0.5916  -0.5753  -0.5686  -0.5585  -0.5430
 -0.5095  -0.4875  -0.4667  -0.4459  -0.3372  -0.2963

          Ground-State Mulliken Net Atomic Charges

     Atom                 Charge (a.u.)
  ----------------------------------------
      1 C                     0.069397
      2 C                    -0.278941
      3 C                     0.035562
      4 H                     0.176917
      5 C                    -0.265456
      6 S                    -0.005462
      7 C                    -0.274804
      8 H                     0.101123
      9 H                     0.107349
     10 H                     0.107181
     11 C                    -0.387452
     12 H                     0.132440
     13 H                     0.157875
     14 H                     0.132101
     15 H                     0.192169
  ----------------------------------------
  Sum of atomic charges =     0.000000

                    Cartesian Multipole Moments
 -----------------------------------------------------------------
    Charge (ESU x 10^10)
                -0.0000
    Dipole Moment (Debye)
         X       0.4396      Y      -0.4090      Z       1.9887
       Tot       2.0773
    Quadrupole Moments (Debye-Ang)
        XX     -53.9636     XY      -1.1199     YY     -42.0473
        XZ      -0.2983     YZ      -0.6845     ZZ     -48.7861

 Total job time:  158.73s(wall), 155.24s(cpu)
        *  Thank you very much for using Q-Chem.  Have a nice day.  *
