 Q-Chem 5.4, Q-Chem, Inc., Pleasanton, CA (2021)
 Q-Chem 5.4.0 for Intel X86 EM64T Linux

User input:
--------------------------------------------------------------
$molecule
0 1
C	-0.180329	-0.553191	0.013912
C	0.043171	0.281009	1.113312
C	0.401371	1.617709	0.790612
H	-0.052229	-0.075291	2.150012
C	0.458571	1.830809	-0.598588
S	0.063571	0.357109	-1.472888
C	0.682971	2.668409	1.828512
H	0.572771	2.257309	2.850612
H	-0.009629	3.531409	1.740112
H	1.714271	3.069409	1.740112
C	-0.180329	-1.993891	0.013912
H	0.834471	-1.993591	0.383412
H	-0.460529	-2.697691	0.783712
H	0.143571	-2.512791	-0.876088
H	0.704271	2.747709	-1.147688
$end

$rem
JOBTYPE		SP
EXCHANGE	HF
CORRELATION	pRIMP2
BASIS		cc-pvtz
METHOD		rimp2
AUX_BASIS	rimp2-cc-pvtz
SOLVENT_METHOD	PCM
PURECART	11111
SYMMETRY	false
MEM_TOTAL	110000
SCF_CONVERGENCE = 6
THRESH=10
$end

$solvent
dielectric 4.90
$end
--------------------------------------------------------------

             Standard Nuclear Orientation (Angstroms)
    I     Atom           X                Y                Z
 ----------------------------------------------------------------
    1      C      -0.1803290000    -0.5531910000     0.0139120000
    2      C       0.0431710000     0.2810090000     1.1133120000
    3      C       0.4013710000     1.6177090000     0.7906120000
    4      H      -0.0522290000    -0.0752910000     2.1500120000
    5      C       0.4585710000     1.8308090000    -0.5985880000
    6      S       0.0635710000     0.3571090000    -1.4728880000
    7      C       0.6829710000     2.6684090000     1.8285120000
    8      H       0.5727710000     2.2573090000     2.8506120000
    9      H      -0.0096290000     3.5314090000     1.7401120000
   10      H       1.7142710000     3.0694090000     1.7401120000
   11      C      -0.1803290000    -1.9938910000     0.0139120000
   12      H       0.8344710000    -1.9935910000     0.3834120000
   13      H      -0.4605290000    -2.6976910000     0.7837120000
   14      H       0.1435710000    -2.5127910000    -0.8760880000
   15      H       0.7042710000     2.7477090000    -1.1476880000
 ----------------------------------------------------------------

   10    -629.4203346411      6.70e-07  Convergence criterion met
 Total energy in the final basis set =     -629.4203346411
        RIMP2         total energy =      -630.5968789543 a.u.

                    Orbital Energies (a.u.)
 --------------------------------------------------------------

 Alpha MOs
 -- Occupied --
-91.9795 -11.2847 -11.2493 -11.2473 -11.2266 -11.2227 -11.2212  -8.9791
 -6.6601  -6.6596  -6.6590  -1.1613  -1.0561  -0.9977  -0.9407  -0.8826
 -0.7433  -0.7197  -0.6494  -0.5877  -0.5744  -0.5677  -0.5565  -0.5451
 -0.5071  -0.4912  -0.4668  -0.4566  -0.3377  -0.2890

          Ground-State Mulliken Net Atomic Charges

     Atom                 Charge (a.u.)
  ----------------------------------------
      1 C                     0.057277
      2 C                    -0.297644
      3 C                     0.048838
      4 H                     0.173843
      5 C                    -0.280728
      6 S                     0.005056
      7 C                    -0.273048
      8 H                     0.101356
      9 H                     0.107364
     10 H                     0.106922
     11 C                    -0.386247
     12 H                     0.149582
     13 H                     0.158677
     14 H                     0.136019
     15 H                     0.192732
  ----------------------------------------
  Sum of atomic charges =     0.000000

                    Cartesian Multipole Moments
 -----------------------------------------------------------------
    Charge (ESU x 10^10)
                -0.0000
    Dipole Moment (Debye)
         X       0.9784      Y      -0.6912      Z       1.6274
       Tot       2.0207
    Quadrupole Moments (Debye-Ang)
        XX     -54.0135     XY       0.8181     YY     -42.5396
        XZ      -0.0699     YZ      -0.3416     ZZ     -48.5435

 Total job time:  156.01s(wall), 155.42s(cpu)
        *  Thank you very much for using Q-Chem.  Have a nice day.  *
