 Q-Chem 5.4, Q-Chem, Inc., Pleasanton, CA (2021)
 Q-Chem 5.4.0 for Intel X86 EM64T Linux

User input:
--------------------------------------------------------------
$molecule
0 1
C	-0.431285	-0.417594	0.013913
C	0.123815	0.243906	1.113313
C	1.013415	1.304106	0.790613
H	-0.113185	-0.038594	2.150013
C	1.155315	1.473106	-0.598587
S	0.174515	0.304306	-1.472887
C	1.712615	2.137306	1.828513
H	1.439015	1.811306	2.850613
H	1.449615	3.212106	1.740113
H	2.816815	2.064906	1.740113
C	-0.431285	-1.858294	0.013913
H	-1.446185	-1.858494	0.383213
H	-0.151185	-2.562094	0.783713
H	-0.755185	-2.377194	-0.876087
H	1.765415	2.200206	-1.147687
$end

$rem
JOBTYPE		SP
EXCHANGE	HF
CORRELATION	pRIMP2
BASIS		cc-pvtz
METHOD		rimp2
AUX_BASIS	rimp2-cc-pvtz
SOLVENT_METHOD	PCM
PURECART	11111
SYMMETRY	false
MEM_TOTAL	110000
SCF_CONVERGENCE = 6
THRESH=10
$end

$solvent
dielectric 4.90
$end
--------------------------------------------------------------

             Standard Nuclear Orientation (Angstroms)
    I     Atom           X                Y                Z
 ----------------------------------------------------------------
    1      C      -0.4312850000    -0.4175940000     0.0139130000
    2      C       0.1238150000     0.2439060000     1.1133130000
    3      C       1.0134150000     1.3041060000     0.7906130000
    4      H      -0.1131850000    -0.0385940000     2.1500130000
    5      C       1.1553150000     1.4731060000    -0.5985870000
    6      S       0.1745150000     0.3043060000    -1.4728870000
    7      C       1.7126150000     2.1373060000     1.8285130000
    8      H       1.4390150000     1.8113060000     2.8506130000
    9      H       1.4496150000     3.2121060000     1.7401130000
   10      H       2.8168150000     2.0649060000     1.7401130000
   11      C      -0.4312850000    -1.8582940000     0.0139130000
   12      H      -1.4461850000    -1.8584940000     0.3832130000
   13      H      -0.1511850000    -2.5620940000     0.7837130000
   14      H      -0.7551850000    -2.3771940000    -0.8760870000
   15      H       1.7654150000     2.2002060000    -1.1476870000
 ----------------------------------------------------------------

   10    -629.3843104317      6.26e-07  Convergence criterion met
 Total energy in the final basis set =     -629.3843104317
        RIMP2         total energy =      -630.5699175131 a.u.

                    Orbital Energies (a.u.)
 --------------------------------------------------------------

 Alpha MOs
 -- Occupied --
-91.9741 -11.2661 -11.2624 -11.2478 -11.2362 -11.2273 -11.2119  -8.9745
 -6.6555  -6.6547  -6.6543  -1.1638  -1.0539  -0.9968  -0.9405  -0.8828
 -0.7451  -0.7236  -0.6457  -0.5840  -0.5765  -0.5645  -0.5568  -0.5433
 -0.5143  -0.4924  -0.4590  -0.4384  -0.3368  -0.2878

          Ground-State Mulliken Net Atomic Charges

     Atom                 Charge (a.u.)
  ----------------------------------------
      1 C                    -0.007043
      2 C                    -0.248147
      3 C                     0.034382
      4 H                     0.177039
      5 C                    -0.238764
      6 S                     0.005521
      7 C                    -0.269917
      8 H                     0.101401
      9 H                     0.107065
     10 H                     0.105996
     11 C                    -0.383075
     12 H                     0.130115
     13 H                     0.159230
     14 H                     0.133764
     15 H                     0.192434
  ----------------------------------------
  Sum of atomic charges =     0.000000

                    Cartesian Multipole Moments
 -----------------------------------------------------------------
    Charge (ESU x 10^10)
                -0.0000
    Dipole Moment (Debye)
         X       0.5227      Y      -0.1540      Z       1.7974
       Tot       1.8782
    Quadrupole Moments (Debye-Ang)
        XX     -50.4793     XY       5.6763     YY     -46.3343
        XZ       0.1655     YZ      -0.3897     ZZ     -48.2172

 Total job time:  157.15s(wall), 154.75s(cpu)
        *  Thank you very much for using Q-Chem.  Have a nice day.  *
