 Q-Chem 5.4, Q-Chem, Inc., Pleasanton, CA (2021)
 Q-Chem 5.4.0 for Intel X86 EM64T Linux

User input:
--------------------------------------------------------------
$molecule
0 1
C	-0.343264	-0.485419	0.017710
C	0.088536	0.262481	1.117110
C	0.780536	1.460981	0.794410
H	-0.095864	-0.056919	2.153810
C	0.890836	1.652081	-0.594790
S	0.127936	0.330681	-1.469090
C	1.324436	2.402981	1.832310
H	1.111636	2.034381	2.854410
H	0.878736	3.415781	1.743910
H	2.424436	2.523381	1.743910
C	-0.343264	-1.926119	0.017710
H	0.484136	-1.926319	-0.676390
H	-0.869764	-2.629919	-0.609890
H	0.265536	-2.445019	0.743210
H	1.365536	2.474081	-1.143890
$end

$rem
JOBTYPE		SP
EXCHANGE	HF
CORRELATION	pRIMP2
BASIS		cc-pvtz
METHOD		rimp2
AUX_BASIS	rimp2-cc-pvtz
SOLVENT_METHOD	PCM
PURECART	11111
SYMMETRY	false
MEM_TOTAL	110000
SCF_CONVERGENCE = 6
THRESH=10
$end

$solvent
dielectric 4.90
$end
--------------------------------------------------------------

   10    -629.4058762398      6.41e-07  Convergence criterion met
 Total energy in the final basis set =     -629.4058762398
        RIMP2         total energy =      -630.5856820991 a.u.
 Total job time:  158.92s(wall), 158.14s(cpu)
        *  Thank you very much for using Q-Chem.  Have a nice day.  *
 Q-Chem 5.4, Q-Chem, Inc., Pleasanton, CA (2021)
 Q-Chem 5.4.0 for Intel X86 EM64T Linux

User input:
--------------------------------------------------------------
$molecule
0 1
C	-0.343264	-0.485419	0.017710
C	0.088536	0.262481	1.117110
C	0.780536	1.460981	0.794410
H	-0.095864	-0.056919	2.153810
C	0.890836	1.652081	-0.594790
S	0.127936	0.330681	-1.469090
C	1.324436	2.402981	1.832310
H	1.111636	2.034381	2.854410
H	0.878736	3.415781	1.743910
H	2.424436	2.523381	1.743910
C	-0.343264	-1.926119	0.017710
H	0.484136	-1.926319	-0.676390
H	-0.869764	-2.629919	-0.609890
H	0.265536	-2.445019	0.743210
H	1.365536	2.474081	-1.143890
$end

$rem
JOBTYPE		SP
EXCHANGE	HF
CORRELATION	pRIMP2
BASIS		cc-pvtz
METHOD		rimp2
AUX_BASIS	rimp2-cc-pvtz
SOLVENT_METHOD	PCM
PURECART	11111
SYMMETRY	false
MEM_TOTAL	110000
SCF_CONVERGENCE = 6
THRESH=10
$end

$solvent
dielectric 4.90
$end
--------------------------------------------------------------

             Standard Nuclear Orientation (Angstroms)
    I     Atom           X                Y                Z
 ----------------------------------------------------------------
    1      C      -0.3432640000    -0.4854190000     0.0177100000
    2      C       0.0885360000     0.2624810000     1.1171100000
    3      C       0.7805360000     1.4609810000     0.7944100000
    4      H      -0.0958640000    -0.0569190000     2.1538100000
    5      C       0.8908360000     1.6520810000    -0.5947900000
    6      S       0.1279360000     0.3306810000    -1.4690900000
    7      C       1.3244360000     2.4029810000     1.8323100000
    8      H       1.1116360000     2.0343810000     2.8544100000
    9      H       0.8787360000     3.4157810000     1.7439100000
   10      H       2.4244360000     2.5233810000     1.7439100000
   11      C      -0.3432640000    -1.9261190000     0.0177100000
   12      H       0.4841360000    -1.9263190000    -0.6763900000
   13      H      -0.8697640000    -2.6299190000    -0.6098900000
   14      H       0.2655360000    -2.4450190000     0.7432100000
   15      H       1.3655360000     2.4740810000    -1.1438900000
 ----------------------------------------------------------------

   10    -629.4058762398      6.41e-07  Convergence criterion met
 Total energy in the final basis set =     -629.4058762398
        RIMP2         total energy =      -630.5856820991 a.u.

                    Orbital Energies (a.u.)
 --------------------------------------------------------------

 Alpha MOs
 -- Occupied --
-91.9744 -11.2762 -11.2582 -11.2472 -11.2317 -11.2272 -11.2167  -8.9751
 -6.6561  -6.6554  -6.6549  -1.1644  -1.0564  -0.9951  -0.9434  -0.8807
 -0.7477  -0.7206  -0.6460  -0.5900  -0.5791  -0.5657  -0.5506  -0.5480
 -0.5092  -0.4906  -0.4624  -0.4481  -0.3395  -0.2931

          Ground-State Mulliken Net Atomic Charges

     Atom                 Charge (a.u.)
  ----------------------------------------
      1 C                     0.044426
      2 C                    -0.300407
      3 C                     0.053355
      4 H                     0.179533
      5 C                    -0.255283
      6 S                    -0.006540
      7 C                    -0.270290
      8 H                     0.101549
      9 H                     0.107769
     10 H                     0.106582
     11 C                    -0.374642
     12 H                     0.137626
     13 H                     0.145496
     14 H                     0.137798
     15 H                     0.193027
  ----------------------------------------
  Sum of atomic charges =     0.000000

                    Cartesian Multipole Moments
 -----------------------------------------------------------------
    Charge (ESU x 10^10)
                -0.0000
    Dipole Moment (Debye)
         X       1.3112      Y      -0.2861      Z       1.1334
       Tot       1.7567
    Quadrupole Moments (Debye-Ang)
        XX     -52.4351     XY       2.8648     YY     -44.5658
        XZ       0.4679     YZ       1.1974     ZZ     -48.5660

 Total job time:  157.73s(wall), 156.29s(cpu)
        *  Thank you very much for using Q-Chem.  Have a nice day.  *
