 Q-Chem 5.4, Q-Chem, Inc., Pleasanton, CA (2021)
 Q-Chem 5.4.0 for Intel X86 EM64T Linux

User input:
--------------------------------------------------------------
$molecule
0 1
C	-0.115133	-0.566010	0.010946
C	0.034867	0.284490	1.110346
C	0.275167	1.647390	0.787646
H	-0.029233	-0.078710	2.147046
C	0.313567	1.864690	-0.601554
S	0.048567	0.362090	-1.475854
C	0.464067	2.718590	1.825546
H	0.390167	2.299390	2.847646
H	-0.301133	3.517890	1.737146
H	1.456567	3.207890	1.737146
C	-0.115133	-2.006710	0.010946
H	-0.809433	-2.006410	0.838246
H	-0.742633	-2.710510	-0.515654
H	0.610467	-2.525610	0.619746
H	0.478367	2.799390	-1.150654
$end

$rem
JOBTYPE		SP
EXCHANGE	HF
CORRELATION	pRIMP2
BASIS		cc-pvtz
METHOD		rimp2
AUX_BASIS	rimp2-cc-pvtz
SOLVENT_METHOD	PCM
PURECART	11111
SYMMETRY	false
MEM_TOTAL	110000
SCF_CONVERGENCE = 6
THRESH=10
$end

$solvent
dielectric 4.90
$end
--------------------------------------------------------------

   10    -629.4222590486      5.57e-07  Convergence criterion met
 Total energy in the final basis set =     -629.4222590486
        RIMP2         total energy =      -630.6001774960 a.u.
 Total job time:  155.87s(wall), 154.69s(cpu)
        *  Thank you very much for using Q-Chem.  Have a nice day.  *
 Q-Chem 5.4, Q-Chem, Inc., Pleasanton, CA (2021)
 Q-Chem 5.4.0 for Intel X86 EM64T Linux

User input:
--------------------------------------------------------------
$molecule
0 1
C	-0.115133	-0.566010	0.010946
C	0.034867	0.284490	1.110346
C	0.275167	1.647390	0.787646
H	-0.029233	-0.078710	2.147046
C	0.313567	1.864690	-0.601554
S	0.048567	0.362090	-1.475854
C	0.464067	2.718590	1.825546
H	0.390167	2.299390	2.847646
H	-0.301133	3.517890	1.737146
H	1.456567	3.207890	1.737146
C	-0.115133	-2.006710	0.010946
H	-0.809433	-2.006410	0.838246
H	-0.742633	-2.710510	-0.515654
H	0.610467	-2.525610	0.619746
H	0.478367	2.799390	-1.150654
$end

$rem
JOBTYPE		SP
EXCHANGE	HF
CORRELATION	pRIMP2
BASIS		cc-pvtz
METHOD		rimp2
AUX_BASIS	rimp2-cc-pvtz
SOLVENT_METHOD	PCM
PURECART	11111
SYMMETRY	false
MEM_TOTAL	110000
SCF_CONVERGENCE = 6
THRESH=10
$end

$solvent
dielectric 4.90
$end
--------------------------------------------------------------

             Standard Nuclear Orientation (Angstroms)
    I     Atom           X                Y                Z
 ----------------------------------------------------------------
    1      C      -0.1151330000    -0.5660100000     0.0109460000
    2      C       0.0348670000     0.2844900000     1.1103460000
    3      C       0.2751670000     1.6473900000     0.7876460000
    4      H      -0.0292330000    -0.0787100000     2.1470460000
    5      C       0.3135670000     1.8646900000    -0.6015540000
    6      S       0.0485670000     0.3620900000    -1.4758540000
    7      C       0.4640670000     2.7185900000     1.8255460000
    8      H       0.3901670000     2.2993900000     2.8476460000
    9      H      -0.3011330000     3.5178900000     1.7371460000
   10      H       1.4565670000     3.2078900000     1.7371460000
   11      C      -0.1151330000    -2.0067100000     0.0109460000
   12      H      -0.8094330000    -2.0064100000     0.8382460000
   13      H      -0.7426330000    -2.7105100000    -0.5156540000
   14      H       0.6104670000    -2.5256100000     0.6197460000
   15      H       0.4783670000     2.7993900000    -1.1506540000
 ----------------------------------------------------------------

   10    -629.4222590486      5.57e-07  Convergence criterion met
 Total energy in the final basis set =     -629.4222590486
        RIMP2         total energy =      -630.6001774960 a.u.

                    Orbital Energies (a.u.)
 --------------------------------------------------------------

 Alpha MOs
 -- Occupied --
-91.9757 -11.2805 -11.2535 -11.2473 -11.2302 -11.2271 -11.2180  -8.9757
 -6.6566  -6.6560  -6.6555  -1.1605  -1.0546  -0.9990  -0.9398  -0.8840
 -0.7423  -0.7217  -0.6480  -0.5914  -0.5758  -0.5673  -0.5590  -0.5430
 -0.5098  -0.4889  -0.4655  -0.4441  -0.3374  -0.2965

          Ground-State Mulliken Net Atomic Charges

     Atom                 Charge (a.u.)
  ----------------------------------------
      1 C                     0.064287
      2 C                    -0.286584
      3 C                     0.041449
      4 H                     0.177222
      5 C                    -0.264070
      6 S                    -0.004709
      7 C                    -0.274428
      8 H                     0.101074
      9 H                     0.107131
     10 H                     0.107395
     11 C                    -0.382191
     12 H                     0.129621
     13 H                     0.159039
     14 H                     0.132636
     15 H                     0.192128
  ----------------------------------------
  Sum of atomic charges =     0.000000

                    Cartesian Multipole Moments
 -----------------------------------------------------------------
    Charge (ESU x 10^10)
                -0.0000
    Dipole Moment (Debye)
         X      -0.2100      Y      -0.3641      Z       2.0044
       Tot       2.0480
    Quadrupole Moments (Debye-Ang)
        XX     -53.6049     XY       2.6263     YY     -42.3370
        XZ       0.3137     YZ      -0.6846     ZZ     -48.7912

 Total job time:  157.00s(wall), 155.38s(cpu)
        *  Thank you very much for using Q-Chem.  Have a nice day.  *
