 Q-Chem 5.4, Q-Chem, Inc., Pleasanton, CA (2021)
 Q-Chem 5.4.0 for Intel X86 EM64T Linux

User input:
--------------------------------------------------------------
$molecule
0 1
C	-0.234690	-0.535395	0.010945
C	0.060710	0.276105	1.110345
C	0.534010	1.576505	0.787645
H	-0.065390	-0.070395	2.147045
C	0.609510	1.783905	-0.601555
S	0.087610	0.350205	-1.475855
C	0.906110	2.598705	1.825545
H	0.760510	2.198705	2.847645
H	0.291310	3.518705	1.737145
H	1.968510	2.908305	1.737145
C	-0.234690	-1.976095	0.010945
H	0.459410	-1.976295	0.838345
H	0.392910	-2.679895	-0.515555
H	-0.960190	-2.494995	0.619745
H	0.934210	2.675905	-1.150655
$end

$rem
JOBTYPE		SP
EXCHANGE	HF
CORRELATION	pRIMP2
BASIS		cc-pvtz
METHOD		rimp2
AUX_BASIS	rimp2-cc-pvtz
SOLVENT_METHOD	PCM
PURECART	11111
SYMMETRY	false
MEM_TOTAL	110000
SCF_CONVERGENCE = 6
THRESH=10
$end

$solvent
dielectric 4.90
$end
--------------------------------------------------------------

             Standard Nuclear Orientation (Angstroms)
    I     Atom           X                Y                Z
 ----------------------------------------------------------------
    1      C      -0.2346900000    -0.5353950000     0.0109450000
    2      C       0.0607100000     0.2761050000     1.1103450000
    3      C       0.5340100000     1.5765050000     0.7876450000
    4      H      -0.0653900000    -0.0703950000     2.1470450000
    5      C       0.6095100000     1.7839050000    -0.6015550000
    6      S       0.0876100000     0.3502050000    -1.4758550000
    7      C       0.9061100000     2.5987050000     1.8255450000
    8      H       0.7605100000     2.1987050000     2.8476450000
    9      H       0.2913100000     3.5187050000     1.7371450000
   10      H       1.9685100000     2.9083050000     1.7371450000
   11      C      -0.2346900000    -1.9760950000     0.0109450000
   12      H       0.4594100000    -1.9762950000     0.8383450000
   13      H       0.3929100000    -2.6798950000    -0.5155550000
   14      H      -0.9601900000    -2.4949950000     0.6197450000
   15      H       0.9342100000     2.6759050000    -1.1506550000
 ----------------------------------------------------------------

   10    -629.4135622570      5.48e-07  Convergence criterion met
 Total energy in the final basis set =     -629.4135622570
        RIMP2         total energy =      -630.5930633601 a.u.

                    Orbital Energies (a.u.)
 --------------------------------------------------------------

 Alpha MOs
 -- Occupied --
-91.9774 -11.2793 -11.2541 -11.2475 -11.2296 -11.2272 -11.2164  -8.9772
 -6.6581  -6.6576  -6.6571  -1.1620  -1.0548  -0.9990  -0.9387  -0.8835
 -0.7425  -0.7225  -0.6475  -0.5906  -0.5752  -0.5714  -0.5569  -0.5430
 -0.5108  -0.4808  -0.4677  -0.4477  -0.3363  -0.2952

          Ground-State Mulliken Net Atomic Charges

     Atom                 Charge (a.u.)
  ----------------------------------------
      1 C                     0.045423
      2 C                    -0.268931
      3 C                     0.034670
      4 H                     0.175772
      5 C                    -0.262627
      6 S                    -0.000763
      7 C                    -0.272007
      8 H                     0.101231
      9 H                     0.107297
     10 H                     0.106709
     11 C                    -0.389738
     12 H                     0.140804
     13 H                     0.158692
     14 H                     0.131345
     15 H                     0.192123
  ----------------------------------------
  Sum of atomic charges =     0.000000

                    Cartesian Multipole Moments
 -----------------------------------------------------------------
    Charge (ESU x 10^10)
                -0.0000
    Dipole Moment (Debye)
         X       0.9026      Y      -0.3404      Z       1.9874
       Tot       2.2092
    Quadrupole Moments (Debye-Ang)
        XX     -53.2436     XY       1.7379     YY     -43.3629
        XZ      -0.2753     YZ      -0.7157     ZZ     -48.6540

 Total job time:  160.50s(wall), 158.04s(cpu)
        *  Thank you very much for using Q-Chem.  Have a nice day.  *
