 Q-Chem 5.4, Q-Chem, Inc., Pleasanton, CA (2021)
 Q-Chem 5.4.0 for Intel X86 EM64T Linux

User input:
--------------------------------------------------------------
$molecule
0 1
C	-0.122567	-0.566010	0.013912
C	0.027433	0.284490	1.113312
C	0.267733	1.647390	0.790612
H	-0.036667	-0.078710	2.150012
C	0.306133	1.864690	-0.598588
S	0.041133	0.362090	-1.472888
C	0.456633	2.718590	1.828512
H	0.382733	2.299390	2.850612
H	-0.308567	3.517890	1.740112
H	1.449133	3.207890	1.740112
C	-0.122567	-2.006710	0.013912
H	0.892233	-2.006410	0.383412
H	-0.402767	-2.710510	0.783712
H	0.201333	-2.525610	-0.876088
H	0.470933	2.799390	-1.147688
$end

$rem
JOBTYPE		SP
EXCHANGE	HF
CORRELATION	pRIMP2
BASIS		cc-pvtz
METHOD		rimp2
AUX_BASIS	rimp2-cc-pvtz
SOLVENT_METHOD	PCM
PURECART	11111
SYMMETRY	false
MEM_TOTAL	110000
SCF_CONVERGENCE = 6
THRESH=10
$end

$solvent
dielectric 4.90
$end
--------------------------------------------------------------

   10    -629.4227337148      6.77e-07  Convergence criterion met
 Total energy in the final basis set =     -629.4227337148
        RIMP2         total energy =      -630.5987134532 a.u.
 Total job time:  157.86s(wall), 155.63s(cpu)
        *  Thank you very much for using Q-Chem.  Have a nice day.  *
 Q-Chem 5.4, Q-Chem, Inc., Pleasanton, CA (2021)
 Q-Chem 5.4.0 for Intel X86 EM64T Linux

User input:
--------------------------------------------------------------
$molecule
0 1
C	-0.122567	-0.566010	0.013912
C	0.027433	0.284490	1.113312
C	0.267733	1.647390	0.790612
H	-0.036667	-0.078710	2.150012
C	0.306133	1.864690	-0.598588
S	0.041133	0.362090	-1.472888
C	0.456633	2.718590	1.828512
H	0.382733	2.299390	2.850612
H	-0.308567	3.517890	1.740112
H	1.449133	3.207890	1.740112
C	-0.122567	-2.006710	0.013912
H	0.892233	-2.006410	0.383412
H	-0.402767	-2.710510	0.783712
H	0.201333	-2.525610	-0.876088
H	0.470933	2.799390	-1.147688
$end

$rem
JOBTYPE		SP
EXCHANGE	HF
CORRELATION	pRIMP2
BASIS		cc-pvtz
METHOD		rimp2
AUX_BASIS	rimp2-cc-pvtz
SOLVENT_METHOD	PCM
PURECART	11111
SYMMETRY	false
MEM_TOTAL	110000
SCF_CONVERGENCE = 6
THRESH=10
$end

$solvent
dielectric 4.90
$end
--------------------------------------------------------------

             Standard Nuclear Orientation (Angstroms)
    I     Atom           X                Y                Z
 ----------------------------------------------------------------
    1      C      -0.1225670000    -0.5660100000     0.0139120000
    2      C       0.0274330000     0.2844900000     1.1133120000
    3      C       0.2677330000     1.6473900000     0.7906120000
    4      H      -0.0366670000    -0.0787100000     2.1500120000
    5      C       0.3061330000     1.8646900000    -0.5985880000
    6      S       0.0411330000     0.3620900000    -1.4728880000
    7      C       0.4566330000     2.7185900000     1.8285120000
    8      H       0.3827330000     2.2993900000     2.8506120000
    9      H      -0.3085670000     3.5178900000     1.7401120000
   10      H       1.4491330000     3.2078900000     1.7401120000
   11      C      -0.1225670000    -2.0067100000     0.0139120000
   12      H       0.8922330000    -2.0064100000     0.3834120000
   13      H      -0.4027670000    -2.7105100000     0.7837120000
   14      H       0.2013330000    -2.5256100000    -0.8760880000
   15      H       0.4709330000     2.7993900000    -1.1476880000
 ----------------------------------------------------------------

   10    -629.4227337148      6.77e-07  Convergence criterion met
 Total energy in the final basis set =     -629.4227337148
        RIMP2         total energy =      -630.5987134532 a.u.

                    Orbital Energies (a.u.)
 --------------------------------------------------------------

 Alpha MOs
 -- Occupied --
-91.9794 -11.2852 -11.2488 -11.2471 -11.2265 -11.2225 -11.2215  -8.9790
 -6.6600  -6.6595  -6.6589  -1.1607  -1.0561  -0.9977  -0.9410  -0.8828
 -0.7431  -0.7194  -0.6496  -0.5876  -0.5739  -0.5678  -0.5567  -0.5451
 -0.5071  -0.4919  -0.4668  -0.4563  -0.3378  -0.2892

          Ground-State Mulliken Net Atomic Charges

     Atom                 Charge (a.u.)
  ----------------------------------------
      1 C                     0.063462
      2 C                    -0.301079
      3 C                     0.048495
      4 H                     0.174038
      5 C                    -0.281052
      6 S                     0.004175
      7 C                    -0.273897
      8 H                     0.101277
      9 H                     0.107290
     10 H                     0.107110
     11 C                    -0.386440
     12 H                     0.147678
     13 H                     0.159934
     14 H                     0.136289
     15 H                     0.192719
  ----------------------------------------
  Sum of atomic charges =     0.000000

                    Cartesian Multipole Moments
 -----------------------------------------------------------------
    Charge (ESU x 10^10)
                -0.0000
    Dipole Moment (Debye)
         X       0.8835      Y      -0.7092      Z       1.6248
       Tot       1.9808
    Quadrupole Moments (Debye-Ang)
        XX     -54.2339     XY       0.0880     YY     -42.1468
        XZ      -0.0936     YZ      -0.3201     ZZ     -48.5675

 Total job time:  156.24s(wall), 155.02s(cpu)
        *  Thank you very much for using Q-Chem.  Have a nice day.  *
