 Q-Chem 5.4, Q-Chem, Inc., Pleasanton, CA (2021)
 Q-Chem 5.4.0 for Intel X86 EM64T Linux

User input:
--------------------------------------------------------------
$molecule
0 1
C	-0.062068	-0.573729	0.011118
C	0.013232	0.286571	1.110518
C	0.133832	1.665271	0.787818
H	-0.018868	-0.080829	2.147218
C	0.153132	1.885071	-0.601382
S	0.020132	0.365071	-1.475682
C	0.228732	2.748871	1.825718
H	0.191632	2.324771	2.847818
H	-0.603268	3.478371	1.737318
H	1.174732	3.322871	1.737318
C	-0.062068	-2.014429	0.011118
H	0.477832	-2.014129	0.946518
H	-0.771568	-2.718229	0.420618
H	0.758132	-2.533329	-0.462482
H	0.235832	2.830671	-1.150482
$end

$rem
JOBTYPE		SP
EXCHANGE	HF
CORRELATION	pRIMP2
BASIS		cc-pvtz
METHOD		rimp2
AUX_BASIS	rimp2-cc-pvtz
SOLVENT_METHOD	PCM
PURECART	11111
SYMMETRY	false
MEM_TOTAL	110000
SCF_CONVERGENCE = 6
THRESH=10
$end

$solvent
dielectric 4.90
$end
--------------------------------------------------------------

             Standard Nuclear Orientation (Angstroms)
    I     Atom           X                Y                Z
 ----------------------------------------------------------------
    1      C      -0.0620680000    -0.5737290000     0.0111180000
    2      C       0.0132320000     0.2865710000     1.1105180000
    3      C       0.1338320000     1.6652710000     0.7878180000
    4      H      -0.0188680000    -0.0808290000     2.1472180000
    5      C       0.1531320000     1.8850710000    -0.6013820000
    6      S       0.0201320000     0.3650710000    -1.4756820000
    7      C       0.2287320000     2.7488710000     1.8257180000
    8      H       0.1916320000     2.3247710000     2.8478180000
    9      H      -0.6032680000     3.4783710000     1.7373180000
   10      H       1.1747320000     3.3228710000     1.7373180000
   11      C      -0.0620680000    -2.0144290000     0.0111180000
   12      H       0.4778320000    -2.0141290000     0.9465180000
   13      H      -0.7715680000    -2.7182290000     0.4206180000
   14      H       0.7581320000    -2.5333290000    -0.4624820000
   15      H       0.2358320000     2.8306710000    -1.1504820000
 ----------------------------------------------------------------

   10    -629.4237745910      5.26e-07  Convergence criterion met
 Total energy in the final basis set =     -629.4237745910
        RIMP2         total energy =      -630.6013716269 a.u.

                    Orbital Energies (a.u.)
 --------------------------------------------------------------

 Alpha MOs
 -- Occupied --
-91.9765 -11.2796 -11.2548 -11.2471 -11.2309 -11.2272 -11.2172  -8.9764
 -6.6573  -6.6568  -6.6562  -1.1608  -1.0544  -0.9992  -0.9399  -0.8840
 -0.7423  -0.7228  -0.6492  -0.5905  -0.5759  -0.5659  -0.5600  -0.5426
 -0.5094  -0.4866  -0.4676  -0.4436  -0.3373  -0.2995

          Ground-State Mulliken Net Atomic Charges

     Atom                 Charge (a.u.)
  ----------------------------------------
      1 C                     0.065336
      2 C                    -0.270582
      3 C                     0.031280
      4 H                     0.177091
      5 C                    -0.257403
      6 S                    -0.007026
      7 C                    -0.274225
      8 H                     0.101137
      9 H                     0.107270
     10 H                     0.107146
     11 C                    -0.381927
     12 H                     0.128741
     13 H                     0.145420
     14 H                     0.134862
     15 H                     0.192880
  ----------------------------------------
  Sum of atomic charges =     0.000000

                    Cartesian Multipole Moments
 -----------------------------------------------------------------
    Charge (ESU x 10^10)
                -0.0000
    Dipole Moment (Debye)
         X       0.4708      Y      -0.2359      Z       2.0432
       Tot       2.1100
    Quadrupole Moments (Debye-Ang)
        XX     -53.8494     XY       0.0549     YY     -42.2272
        XZ      -0.2745     YZ      -0.9839     ZZ     -48.8119

 Total job time:  161.42s(wall), 159.77s(cpu)
        *  Thank you very much for using Q-Chem.  Have a nice day.  *
