 Q-Chem 5.4, Q-Chem, Inc., Pleasanton, CA (2021)
 Q-Chem 5.4.0 for Intel X86 EM64T Linux

User input:
--------------------------------------------------------------
$molecule
0 1
C	-0.516085	-0.333974	0.018379
C	0.145515	0.221126	1.117779
C	1.205615	1.110626	0.795079
H	-0.136985	-0.015974	2.154479
C	1.374715	1.252426	-0.594121
S	0.205815	0.271726	-1.468421
C	2.038915	1.809826	1.832979
H	1.712815	1.536226	2.855079
H	1.966515	2.914026	1.744579
H	3.113715	1.546726	1.744579
C	-0.516085	-1.774674	0.018379
H	-1.210185	-1.774374	-0.809021
H	0.111515	-2.478474	-0.508121
H	-1.241585	-2.293574	0.627179
H	2.101815	1.862626	-1.143221
$end

$rem
JOBTYPE		SP
EXCHANGE	HF
CORRELATION	pRIMP2
BASIS		cc-pvtz
METHOD		rimp2
AUX_BASIS	rimp2-cc-pvtz
SOLVENT_METHOD	PCM
PURECART	11111
SYMMETRY	false
MEM_TOTAL	110000
SCF_CONVERGENCE = 6
THRESH=10
$end

$solvent
dielectric 4.90
$end
--------------------------------------------------------------

             Standard Nuclear Orientation (Angstroms)
    I     Atom           X                Y                Z
 ----------------------------------------------------------------
    1      C      -0.5160850000    -0.3339740000     0.0183790000
    2      C       0.1455150000     0.2211260000     1.1177790000
    3      C       1.2056150000     1.1106260000     0.7950790000
    4      H      -0.1369850000    -0.0159740000     2.1544790000
    5      C       1.3747150000     1.2524260000    -0.5941210000
    6      S       0.2058150000     0.2717260000    -1.4684210000
    7      C       2.0389150000     1.8098260000     1.8329790000
    8      H       1.7128150000     1.5362260000     2.8550790000
    9      H       1.9665150000     2.9140260000     1.7445790000
   10      H       3.1137150000     1.5467260000     1.7445790000
   11      C      -0.5160850000    -1.7746740000     0.0183790000
   12      H      -1.2101850000    -1.7743740000    -0.8090210000
   13      H       0.1115150000    -2.4784740000    -0.5081210000
   14      H      -1.2415850000    -2.2935740000     0.6271790000
   15      H       2.1018150000     1.8626260000    -1.1432210000
 ----------------------------------------------------------------

   10    -629.3671210375      9.88e-07  Convergence criterion met
 Total energy in the final basis set =     -629.3671210375
        RIMP2         total energy =      -630.5550311522 a.u.

                    Orbital Energies (a.u.)
 --------------------------------------------------------------

 Alpha MOs
 -- Occupied --
-91.9773 -11.2758 -11.2503 -11.2485 -11.2441 -11.2281 -11.2082  -8.9777
 -6.6586  -6.6578  -6.6575  -1.1683  -1.0544  -0.9957  -0.9435  -0.8810
 -0.7513  -0.7255  -0.6426  -0.5883  -0.5770  -0.5730  -0.5506  -0.5450
 -0.5176  -0.4753  -0.4531  -0.4393  -0.3360  -0.2978

          Ground-State Mulliken Net Atomic Charges

     Atom                 Charge (a.u.)
  ----------------------------------------
      1 C                    -0.082063
      2 C                    -0.153971
      3 C                     0.003053
      4 H                     0.182674
      5 C                    -0.201892
      6 S                     0.007450
      7 C                    -0.269115
      8 H                     0.101906
      9 H                     0.106603
     10 H                     0.104632
     11 C                    -0.375367
     12 H                     0.110510
     13 H                     0.147786
     14 H                     0.120755
     15 H                     0.197041
  ----------------------------------------
  Sum of atomic charges =     0.000000

                    Cartesian Multipole Moments
 -----------------------------------------------------------------
    Charge (ESU x 10^10)
                -0.0000
    Dipole Moment (Debye)
         X       1.5616      Y       0.3517      Z       1.2638
       Tot       2.0395
    Quadrupole Moments (Debye-Ang)
        XX     -48.9567     XY       5.2756     YY     -48.2897
        XZ      -0.3745     YZ       0.7334     ZZ     -48.1019

 Total job time:  158.71s(wall), 157.25s(cpu)
        *  Thank you very much for using Q-Chem.  Have a nice day.  *
