 Q-Chem 5.4, Q-Chem, Inc., Pleasanton, CA (2021)
 Q-Chem 5.4.0 for Intel X86 EM64T Linux

User input:
--------------------------------------------------------------
$molecule
0 1
C	-0.287814	-0.512744	0.010276
C	0.077186	0.269956	1.109676
C	0.662086	1.524156	0.786976
H	-0.078714	-0.064344	2.146376
C	0.755386	1.724156	-0.602224
S	0.110486	0.341356	-1.476524
C	1.121786	2.509956	1.824876
H	0.941886	2.124256	2.846976
H	0.589486	3.480156	1.736476
H	2.207086	2.725856	1.736476
C	-0.287814	-1.953444	0.010276
H	0.081486	-1.953644	1.025176
H	0.481986	-2.657244	-0.269824
H	-1.177814	-2.472344	0.334176
H	1.156486	2.584456	-1.151324
$end

$rem
JOBTYPE		SP
EXCHANGE	HF
CORRELATION	pRIMP2
BASIS		cc-pvtz
METHOD		rimp2
AUX_BASIS	rimp2-cc-pvtz
SOLVENT_METHOD	PCM
PURECART	11111
SYMMETRY	false
MEM_TOTAL	110000
SCF_CONVERGENCE = 6
THRESH=10
$end

$solvent
dielectric 4.90
$end
--------------------------------------------------------------

             Standard Nuclear Orientation (Angstroms)
    I     Atom           X                Y                Z
 ----------------------------------------------------------------
    1      C      -0.2878140000    -0.5127440000     0.0102760000
    2      C       0.0771860000     0.2699560000     1.1096760000
    3      C       0.6620860000     1.5241560000     0.7869760000
    4      H      -0.0787140000    -0.0643440000     2.1463760000
    5      C       0.7553860000     1.7241560000    -0.6022240000
    6      S       0.1104860000     0.3413560000    -1.4765240000
    7      C       1.1217860000     2.5099560000     1.8248760000
    8      H       0.9418860000     2.1242560000     2.8469760000
    9      H       0.5894860000     3.4801560000     1.7364760000
   10      H       2.2070860000     2.7258560000     1.7364760000
   11      C      -0.2878140000    -1.9534440000     0.0102760000
   12      H       0.0814860000    -1.9536440000     1.0251760000
   13      H       0.4819860000    -2.6572440000    -0.2698240000
   14      H      -1.1778140000    -2.4723440000     0.3341760000
   15      H       1.1564860000     2.5844560000    -1.1513240000
 ----------------------------------------------------------------

   10    -629.4088278209      5.05e-07  Convergence criterion met
 Total energy in the final basis set =     -629.4088278209
        RIMP2         total energy =      -630.5899582925 a.u.

                    Orbital Energies (a.u.)
 --------------------------------------------------------------

 Alpha MOs
 -- Occupied --
-91.9757 -11.2736 -11.2594 -11.2473 -11.2350 -11.2276 -11.2137  -8.9758
 -6.6567  -6.6561  -6.6556  -1.1629  -1.0540  -0.9995  -0.9381  -0.8839
 -0.7427  -0.7251  -0.6472  -0.5899  -0.5780  -0.5701  -0.5568  -0.5421
 -0.5127  -0.4766  -0.4685  -0.4399  -0.3360  -0.3013

          Ground-State Mulliken Net Atomic Charges

     Atom                 Charge (a.u.)
  ----------------------------------------
      1 C                     0.031606
      2 C                    -0.260067
      3 C                     0.032778
      4 H                     0.175797
      5 C                    -0.248143
      6 S                    -0.002045
      7 C                    -0.271408
      8 H                     0.101260
      9 H                     0.107077
     10 H                     0.106645
     11 C                    -0.374044
     12 H                     0.129547
     13 H                     0.155273
     14 H                     0.123088
     15 H                     0.192637
  ----------------------------------------
  Sum of atomic charges =     0.000000

                    Cartesian Multipole Moments
 -----------------------------------------------------------------
    Charge (ESU x 10^10)
                -0.0000
    Dipole Moment (Debye)
         X       0.9053      Y      -0.0394      Z       2.1351
       Tot       2.3194
    Quadrupole Moments (Debye-Ang)
        XX     -52.4743     XY       2.7169     YY     -44.1043
        XZ      -0.2777     YZ      -0.9865     ZZ     -48.7327

 Total job time:  158.55s(wall), 156.39s(cpu)
        *  Thank you very much for using Q-Chem.  Have a nice day.  *
