 Q-Chem 5.4, Q-Chem, Inc., Pleasanton, CA (2021)
 Q-Chem 5.4.0 for Intel X86 EM64T Linux

User input:
--------------------------------------------------------------
$molecule
0 1
C	-0.434112	-0.417597	0.010543
C	0.120988	0.243903	1.109943
C	1.010588	1.304103	0.787243
H	-0.116012	-0.038597	2.146643
C	1.152488	1.473103	-0.601957
S	0.171688	0.304303	-1.476257
C	1.709788	2.137303	1.825143
H	1.436188	1.811303	2.847243
H	1.446788	3.212103	1.736743
H	2.813988	2.064903	1.736743
C	-0.434112	-1.858297	0.010543
H	-0.974212	-1.857997	0.945743
H	-1.143512	-2.562097	-0.399057
H	0.386088	-2.377197	0.484143
H	1.762588	2.200203	-1.151057
$end

$rem
JOBTYPE		SP
EXCHANGE	HF
CORRELATION	pRIMP2
BASIS		cc-pvtz
METHOD		rimp2
AUX_BASIS	rimp2-cc-pvtz
SOLVENT_METHOD	PCM
PURECART	11111
SYMMETRY	false
MEM_TOTAL	110000
SCF_CONVERGENCE = 6
THRESH=10
$end

$solvent
dielectric 4.90
$end
--------------------------------------------------------------

             Standard Nuclear Orientation (Angstroms)
    I     Atom           X                Y                Z
 ----------------------------------------------------------------
    1      C      -0.4341120000    -0.4175970000     0.0105430000
    2      C       0.1209880000     0.2439030000     1.1099430000
    3      C       1.0105880000     1.3041030000     0.7872430000
    4      H      -0.1160120000    -0.0385970000     2.1466430000
    5      C       1.1524880000     1.4731030000    -0.6019570000
    6      S       0.1716880000     0.3043030000    -1.4762570000
    7      C       1.7097880000     2.1373030000     1.8251430000
    8      H       1.4361880000     1.8113030000     2.8472430000
    9      H       1.4467880000     3.2121030000     1.7367430000
   10      H       2.8139880000     2.0649030000     1.7367430000
   11      C      -0.4341120000    -1.8582970000     0.0105430000
   12      H      -0.9742120000    -1.8579970000     0.9457430000
   13      H      -1.1435120000    -2.5620970000    -0.3990570000
   14      H       0.3860880000    -2.3771970000     0.4841430000
   15      H       1.7625880000     2.2002030000    -1.1510570000
 ----------------------------------------------------------------

   10    -629.3933203074      5.31e-07  Convergence criterion met
 Total energy in the final basis set =     -629.3933203074
        RIMP2         total energy =      -630.5782724290 a.u.

                    Orbital Energies (a.u.)
 --------------------------------------------------------------

 Alpha MOs
 -- Occupied --
-91.9724 -11.2667 -11.2647 -11.2485 -11.2413 -11.2282 -11.2126  -8.9731
 -6.6539  -6.6532  -6.6528  -1.1654  -1.0542  -0.9992  -0.9375  -0.8841
 -0.7441  -0.7267  -0.6448  -0.5904  -0.5803  -0.5659  -0.5573  -0.5426
 -0.5146  -0.4837  -0.4629  -0.4300  -0.3373  -0.3003

          Ground-State Mulliken Net Atomic Charges

     Atom                 Charge (a.u.)
  ----------------------------------------
      1 C                    -0.008673
      2 C                    -0.231727
      3 C                     0.024764
      4 H                     0.178988
      5 C                    -0.229353
      6 S                     0.000976
      7 C                    -0.269201
      8 H                     0.101375
      9 H                     0.107007
     10 H                     0.106352
     11 C                    -0.369883
     12 H                     0.114815
     13 H                     0.143572
     14 H                     0.137180
     15 H                     0.193808
  ----------------------------------------
  Sum of atomic charges =     0.000000

                    Cartesian Multipole Moments
 -----------------------------------------------------------------
    Charge (ESU x 10^10)
                -0.0000
    Dipole Moment (Debye)
         X       0.9828      Y       0.0802      Z       2.1660
       Tot       2.3799
    Quadrupole Moments (Debye-Ang)
        XX     -50.2306     XY       5.2902     YY     -46.3560
        XZ       0.1103     YZ      -0.8459     ZZ     -48.5908

 Total job time:  158.12s(wall), 156.35s(cpu)
        *  Thank you very much for using Q-Chem.  Have a nice day.  *
