 Q-Chem 5.4, Q-Chem, Inc., Pleasanton, CA (2021)
 Q-Chem 5.4.0 for Intel X86 EM64T Linux

User input:
--------------------------------------------------------------
$molecule
0 1
C	-0.001427	-0.576309	0.019710
C	-0.001427	0.287291	1.119110
C	-0.001327	1.671191	0.796410
H	-0.001427	-0.081509	2.155810
C	-0.001327	1.891891	-0.592790
S	-0.001427	0.366091	-1.467090
C	-0.001327	2.758991	1.834310
H	-0.001327	2.333291	2.856410
H	-0.893727	3.413291	1.745910
H	0.891073	3.413191	1.745910
C	-0.001427	-2.017009	0.019710
H	0.186273	-2.017209	-1.043890
H	-0.808127	-2.720809	-0.122590
H	0.931273	-2.535909	0.184210
H	-0.001327	2.841091	-1.141890
$end

$rem
JOBTYPE		SP
EXCHANGE	HF
CORRELATION	pRIMP2
BASIS		cc-pvtz
METHOD		rimp2
AUX_BASIS	rimp2-cc-pvtz
SOLVENT_METHOD	PCM
PURECART	11111
SYMMETRY	false
MEM_TOTAL	110000
SCF_CONVERGENCE = 6
THRESH=10
$end

$solvent
dielectric 4.90
$end
--------------------------------------------------------------

   10    -629.4207948201      5.46e-07  Convergence criterion met
 Total energy in the final basis set =     -629.4207948201
        RIMP2         total energy =      -630.5985858596 a.u.
 Total job time:  159.70s(wall), 157.79s(cpu)
        *  Thank you very much for using Q-Chem.  Have a nice day.  *
 Q-Chem 5.4, Q-Chem, Inc., Pleasanton, CA (2021)
 Q-Chem 5.4.0 for Intel X86 EM64T Linux

User input:
--------------------------------------------------------------
$molecule
0 1
C	-0.001427	-0.576309	0.019710
C	-0.001427	0.287291	1.119110
C	-0.001327	1.671191	0.796410
H	-0.001427	-0.081509	2.155810
C	-0.001327	1.891891	-0.592790
S	-0.001427	0.366091	-1.467090
C	-0.001327	2.758991	1.834310
H	-0.001327	2.333291	2.856410
H	-0.893727	3.413291	1.745910
H	0.891073	3.413191	1.745910
C	-0.001427	-2.017009	0.019710
H	0.186273	-2.017209	-1.043890
H	-0.808127	-2.720809	-0.122590
H	0.931273	-2.535909	0.184210
H	-0.001327	2.841091	-1.141890
$end

$rem
JOBTYPE		SP
EXCHANGE	HF
CORRELATION	pRIMP2
BASIS		cc-pvtz
METHOD		rimp2
AUX_BASIS	rimp2-cc-pvtz
SOLVENT_METHOD	PCM
PURECART	11111
SYMMETRY	false
MEM_TOTAL	110000
SCF_CONVERGENCE = 6
THRESH=10
$end

$solvent
dielectric 4.90
$end
--------------------------------------------------------------

             Standard Nuclear Orientation (Angstroms)
    I     Atom           X                Y                Z
 ----------------------------------------------------------------
    1      C      -0.0014270000    -0.5763090000     0.0197100000
    2      C      -0.0014270000     0.2872910000     1.1191100000
    3      C      -0.0013270000     1.6711910000     0.7964100000
    4      H      -0.0014270000    -0.0815090000     2.1558100000
    5      C      -0.0013270000     1.8918910000    -0.5927900000
    6      S      -0.0014270000     0.3660910000    -1.4670900000
    7      C      -0.0013270000     2.7589910000     1.8343100000
    8      H      -0.0013270000     2.3332910000     2.8564100000
    9      H      -0.8937270000     3.4132910000     1.7459100000
   10      H       0.8910730000     3.4131910000     1.7459100000
   11      C      -0.0014270000    -2.0170090000     0.0197100000
   12      H       0.1862730000    -2.0172090000    -1.0438900000
   13      H      -0.8081270000    -2.7208090000    -0.1225900000
   14      H       0.9312730000    -2.5359090000     0.1842100000
   15      H      -0.0013270000     2.8410910000    -1.1418900000
 ----------------------------------------------------------------

   10    -629.4207948201      5.46e-07  Convergence criterion met
 Total energy in the final basis set =     -629.4207948201
        RIMP2         total energy =      -630.5985858596 a.u.

                    Orbital Energies (a.u.)
 --------------------------------------------------------------

 Alpha MOs
 -- Occupied --
-91.9805 -11.2751 -11.2576 -11.2471 -11.2291 -11.2268 -11.2161  -8.9804
 -6.6613  -6.6608  -6.6601  -1.1609  -1.0551  -0.9954  -0.9463  -0.8817
 -0.7479  -0.7186  -0.6481  -0.5915  -0.5754  -0.5662  -0.5533  -0.5474
 -0.5089  -0.4861  -0.4650  -0.4443  -0.3384  -0.3037

          Ground-State Mulliken Net Atomic Charges

     Atom                 Charge (a.u.)
  ----------------------------------------
      1 C                     0.058506
      2 C                    -0.262946
      3 C                     0.039161
      4 H                     0.180152
      5 C                    -0.260025
      6 S                    -0.002405
      7 C                    -0.273313
      8 H                     0.101900
      9 H                     0.106869
     10 H                     0.106860
     11 C                    -0.371120
     12 H                     0.112412
     13 H                     0.140417
     14 H                     0.128244
     15 H                     0.195289
  ----------------------------------------
  Sum of atomic charges =     0.000000

                    Cartesian Multipole Moments
 -----------------------------------------------------------------
    Charge (ESU x 10^10)
                -0.0000
    Dipole Moment (Debye)
         X       0.1295      Y       0.0232      Z       0.8568
       Tot       0.8669
    Quadrupole Moments (Debye-Ang)
        XX     -53.7107     XY      -0.1620     YY     -42.1764
        XZ       0.1244     YZ       1.5065     ZZ     -48.8300

 Total job time:  156.54s(wall), 155.31s(cpu)
        *  Thank you very much for using Q-Chem.  Have a nice day.  *
