 Q-Chem 5.4, Q-Chem, Inc., Pleasanton, CA (2021)
 Q-Chem 5.4.0 for Intel X86 EM64T Linux

User input:
--------------------------------------------------------------
$molecule
0 1
C	-0.440531	-0.417594	0.016960
C	0.114569	0.243906	1.116360
C	1.004169	1.304106	0.793660
H	-0.122431	-0.038594	2.153060
C	1.146069	1.473106	-0.595540
S	0.165269	0.304306	-1.469840
C	1.703369	2.137306	1.831560
H	1.429769	1.811306	2.853660
H	1.440369	3.212106	1.743160
H	2.807569	2.064906	1.743160
C	-0.440531	-1.858294	0.016960
H	0.494869	-1.858494	-0.522940
H	-0.850031	-2.562094	-0.692540
H	0.033069	-2.377194	0.837160
H	1.756169	2.200206	-1.144640
$end

$rem
JOBTYPE		SP
EXCHANGE	HF
CORRELATION	pRIMP2
BASIS		cc-pvtz
METHOD		rimp2
AUX_BASIS	rimp2-cc-pvtz
SOLVENT_METHOD	PCM
PURECART	11111
SYMMETRY	false
MEM_TOTAL	110000
SCF_CONVERGENCE = 6
THRESH=10
$end

$solvent
dielectric 4.90
$end
--------------------------------------------------------------

             Standard Nuclear Orientation (Angstroms)
    I     Atom           X                Y                Z
 ----------------------------------------------------------------
    1      C      -0.4405310000    -0.4175940000     0.0169600000
    2      C       0.1145690000     0.2439060000     1.1163600000
    3      C       1.0041690000     1.3041060000     0.7936600000
    4      H      -0.1224310000    -0.0385940000     2.1530600000
    5      C       1.1460690000     1.4731060000    -0.5955400000
    6      S       0.1652690000     0.3043060000    -1.4698400000
    7      C       1.7033690000     2.1373060000     1.8315600000
    8      H       1.4297690000     1.8113060000     2.8536600000
    9      H       1.4403690000     3.2121060000     1.7431600000
   10      H       2.8075690000     2.0649060000     1.7431600000
   11      C      -0.4405310000    -1.8582940000     0.0169600000
   12      H       0.4948690000    -1.8584940000    -0.5229400000
   13      H      -0.8500310000    -2.5620940000    -0.6925400000
   14      H       0.0330690000    -2.3771940000     0.8371600000
   15      H       1.7561690000     2.2002060000    -1.1446400000
 ----------------------------------------------------------------

   10    -629.3921684503      6.29e-07  Convergence criterion met
 Total energy in the final basis set =     -629.3921684503
        RIMP2         total energy =      -630.5748665554 a.u.

                    Orbital Energies (a.u.)
 --------------------------------------------------------------

 Alpha MOs
 -- Occupied --
-91.9727 -11.2731 -11.2622 -11.2481 -11.2347 -11.2277 -11.2162  -8.9737
 -6.6546  -6.6540  -6.6534  -1.1676  -1.0572  -0.9954  -0.9419  -0.8804
 -0.7486  -0.7227  -0.6450  -0.5889  -0.5818  -0.5658  -0.5510  -0.5474
 -0.5097  -0.4927  -0.4611  -0.4457  -0.3400  -0.2904

          Ground-State Mulliken Net Atomic Charges

     Atom                 Charge (a.u.)
  ----------------------------------------
      1 C                     0.025523
      2 C                    -0.278879
      3 C                     0.041942
      4 H                     0.179699
      5 C                    -0.245088
      6 S                    -0.007637
      7 C                    -0.269454
      8 H                     0.101624
      9 H                     0.107975
     10 H                     0.106399
     11 C                    -0.371444
     12 H                     0.139669
     13 H                     0.142116
     14 H                     0.134108
     15 H                     0.193447
  ----------------------------------------
  Sum of atomic charges =     0.000000

                    Cartesian Multipole Moments
 -----------------------------------------------------------------
    Charge (ESU x 10^10)
                -0.0000
    Dipole Moment (Debye)
         X       1.7010      Y      -0.2875      Z       1.3036
       Tot       2.1622
    Quadrupole Moments (Debye-Ang)
        XX     -51.3686     XY       3.4663     YY     -46.1928
        XZ       0.3904     YZ       0.9259     ZZ     -48.4282

 Total job time:  162.00s(wall), 160.24s(cpu)
        *  Thank you very much for using Q-Chem.  Have a nice day.  *
