 Q-Chem 5.4, Q-Chem, Inc., Pleasanton, CA (2021)
 Q-Chem 5.4.0 for Intel X86 EM64T Linux

User input:
--------------------------------------------------------------
$molecule
0 1
C	-0.180063	-0.553191	0.013103
C	0.043437	0.281009	1.112503
C	0.401637	1.617709	0.789803
H	-0.051963	-0.075291	2.149203
C	0.458837	1.830809	-0.599397
S	0.063837	0.357109	-1.473697
C	0.683237	2.668409	1.827703
H	0.573037	2.257309	2.849803
H	-0.009363	3.531409	1.739303
H	1.714537	3.069409	1.739303
C	-0.180063	-1.993891	0.013103
H	0.755137	-1.993591	0.553203
H	-0.589663	-2.697691	0.722503
H	0.293537	-2.512791	-0.807097
H	0.704537	2.747709	-1.148497
$end

$rem
JOBTYPE		SP
EXCHANGE	HF
CORRELATION	pRIMP2
BASIS		cc-pvtz
METHOD		rimp2
AUX_BASIS	rimp2-cc-pvtz
SOLVENT_METHOD	PCM
PURECART	11111
SYMMETRY	false
MEM_TOTAL	110000
SCF_CONVERGENCE = 6
THRESH=10
$end

$solvent
dielectric 4.90
$end
--------------------------------------------------------------

             Standard Nuclear Orientation (Angstroms)
    I     Atom           X                Y                Z
 ----------------------------------------------------------------
    1      C      -0.1800630000    -0.5531910000     0.0131030000
    2      C       0.0434370000     0.2810090000     1.1125030000
    3      C       0.4016370000     1.6177090000     0.7898030000
    4      H      -0.0519630000    -0.0752910000     2.1492030000
    5      C       0.4588370000     1.8308090000    -0.5993970000
    6      S       0.0638370000     0.3571090000    -1.4736970000
    7      C       0.6832370000     2.6684090000     1.8277030000
    8      H       0.5730370000     2.2573090000     2.8498030000
    9      H      -0.0093630000     3.5314090000     1.7393030000
   10      H       1.7145370000     3.0694090000     1.7393030000
   11      C      -0.1800630000    -1.9938910000     0.0131030000
   12      H       0.7551370000    -1.9935910000     0.5532030000
   13      H      -0.5896630000    -2.6976910000     0.7225030000
   14      H       0.2935370000    -2.5127910000    -0.8070970000
   15      H       0.7045370000     2.7477090000    -1.1484970000
 ----------------------------------------------------------------

   10    -629.4194794972      6.31e-07  Convergence criterion met
 Total energy in the final basis set =     -629.4194794972
        RIMP2         total energy =      -630.5966436560 a.u.

                    Orbital Energies (a.u.)
 --------------------------------------------------------------

 Alpha MOs
 -- Occupied --
-91.9792 -11.2835 -11.2503 -11.2473 -11.2267 -11.2242 -11.2199  -8.9789
 -6.6598  -6.6593  -6.6587  -1.1613  -1.0557  -0.9980  -0.9402  -0.8829
 -0.7429  -0.7204  -0.6492  -0.5885  -0.5737  -0.5679  -0.5576  -0.5444
 -0.5077  -0.4889  -0.4671  -0.4546  -0.3372  -0.2906

          Ground-State Mulliken Net Atomic Charges

     Atom                 Charge (a.u.)
  ----------------------------------------
      1 C                     0.055688
      2 C                    -0.286665
      3 C                     0.043223
      4 H                     0.174343
      5 C                    -0.275612
      6 S                     0.003276
      7 C                    -0.273126
      8 H                     0.101299
      9 H                     0.107361
     10 H                     0.106854
     11 C                    -0.388568
     12 H                     0.146928
     13 H                     0.155987
     14 H                     0.136375
     15 H                     0.192638
  ----------------------------------------
  Sum of atomic charges =     0.000000

                    Cartesian Multipole Moments
 -----------------------------------------------------------------
    Charge (ESU x 10^10)
                -0.0000
    Dipole Moment (Debye)
         X       0.9321      Y      -0.5973      Z       1.7477
       Tot       2.0688
    Quadrupole Moments (Debye-Ang)
        XX     -53.9025     XY       0.9232     YY     -42.6622
        XZ      -0.1674     YZ      -0.5531     ZZ     -48.5586

 Total job time:  156.53s(wall), 155.55s(cpu)
        *  Thank you very much for using Q-Chem.  Have a nice day.  *
