 Q-Chem 5.4, Q-Chem, Inc., Pleasanton, CA (2021)
 Q-Chem 5.4.0 for Intel X86 EM64T Linux

User input:
--------------------------------------------------------------
$molecule
0 1
C	-0.521050	-0.333974	0.010354
C	0.140550	0.221126	1.109754
C	1.200650	1.110626	0.787054
H	-0.141950	-0.015974	2.146454
C	1.369750	1.252426	-0.602146
S	0.200850	0.271726	-1.476446
C	2.033950	1.809826	1.824954
H	1.707850	1.536226	2.847054
H	1.961550	2.914026	1.736554
H	3.108750	1.546726	1.736554
C	-0.521050	-1.774674	0.010354
H	-0.333650	-1.774374	1.073954
H	-1.327850	-2.478474	0.152554
H	0.411650	-2.293574	-0.154146
H	2.096850	1.862626	-1.151246
$end

$rem
JOBTYPE		SP
EXCHANGE	HF
CORRELATION	pRIMP2
BASIS		cc-pvtz
METHOD		rimp2
AUX_BASIS	rimp2-cc-pvtz
SOLVENT_METHOD	PCM
PURECART	11111
SYMMETRY	false
MEM_TOTAL	110000
SCF_CONVERGENCE = 6
THRESH=10
$end

$solvent
dielectric 4.90
$end
--------------------------------------------------------------

             Standard Nuclear Orientation (Angstroms)
    I     Atom           X                Y                Z
 ----------------------------------------------------------------
    1      C      -0.5210500000    -0.3339740000     0.0103540000
    2      C       0.1405500000     0.2211260000     1.1097540000
    3      C       1.2006500000     1.1106260000     0.7870540000
    4      H      -0.1419500000    -0.0159740000     2.1464540000
    5      C       1.3697500000     1.2524260000    -0.6021460000
    6      S       0.2008500000     0.2717260000    -1.4764460000
    7      C       2.0339500000     1.8098260000     1.8249540000
    8      H       1.7078500000     1.5362260000     2.8470540000
    9      H       1.9615500000     2.9140260000     1.7365540000
   10      H       3.1087500000     1.5467260000     1.7365540000
   11      C      -0.5210500000    -1.7746740000     0.0103540000
   12      H      -0.3336500000    -1.7743740000     1.0739540000
   13      H      -1.3278500000    -2.4784740000     0.1525540000
   14      H       0.4116500000    -2.2935740000    -0.1541460000
   15      H       2.0968500000     1.8626260000    -1.1512460000
 ----------------------------------------------------------------

   10    -629.3702008306      8.91e-07  Convergence criterion met
 Total energy in the final basis set =     -629.3702008306
        RIMP2         total energy =      -630.5588481527 a.u.

                    Orbital Energies (a.u.)
 --------------------------------------------------------------

 Alpha MOs
 -- Occupied --
-91.9739 -11.2740 -11.2564 -11.2484 -11.2463 -11.2288 -11.2085  -8.9745
 -6.6553  -6.6546  -6.6543  -1.1707  -1.0556  -1.0008  -0.9346  -0.8829
 -0.7459  -0.7319  -0.6437  -0.5929  -0.5820  -0.5674  -0.5548  -0.5428
 -0.5164  -0.4702  -0.4635  -0.4336  -0.3321  -0.3043

          Ground-State Mulliken Net Atomic Charges

     Atom                 Charge (a.u.)
  ----------------------------------------
      1 C                    -0.050793
      2 C                    -0.175678
      3 C                     0.003076
      4 H                     0.177986
      5 C                    -0.209749
      6 S                     0.006754
      7 C                    -0.268473
      8 H                     0.101477
      9 H                     0.106953
     10 H                     0.105292
     11 C                    -0.358417
     12 H                     0.115933
     13 H                     0.122751
     14 H                     0.127322
     15 H                     0.195567
  ----------------------------------------
  Sum of atomic charges =     0.000000

                    Cartesian Multipole Moments
 -----------------------------------------------------------------
    Charge (ESU x 10^10)
                -0.0000
    Dipole Moment (Debye)
         X       1.9614      Y       0.2123      Z       2.2484
       Tot       2.9912
    Quadrupole Moments (Debye-Ang)
        XX     -49.2108     XY       4.3907     YY     -48.4714
        XZ      -0.5339     YZ      -1.0300     ZZ     -48.3031

 Total job time:  161.13s(wall), 160.48s(cpu)
        *  Thank you very much for using Q-Chem.  Have a nice day.  *
