 Q-Chem 5.4, Q-Chem, Inc., Pleasanton, CA (2021)
 Q-Chem 5.4.0 for Intel X86 EM64T Linux

User input:
--------------------------------------------------------------
$molecule
0 1
C	-0.516083	-0.333972	0.011685
C	0.145517	0.221128	1.111085
C	1.205617	1.110628	0.788385
H	-0.136983	-0.015972	2.147785
C	1.374717	1.252428	-0.600815
S	0.205817	0.271728	-1.475115
C	2.038917	1.809828	1.826285
H	1.712817	1.536228	2.848385
H	1.966517	2.914028	1.737885
H	3.113717	1.546728	1.737885
C	-0.516083	-1.774672	0.011685
H	-1.210383	-1.774872	0.838985
H	0.111417	-2.478472	0.538285
H	-1.241683	-2.293572	-0.597115
H	2.101817	1.862628	-1.149915
$end

$rem
JOBTYPE		SP
EXCHANGE	HF
CORRELATION	pRIMP2
BASIS		cc-pvtz
METHOD		rimp2
AUX_BASIS	rimp2-cc-pvtz
SOLVENT_METHOD	PCM
PURECART	11111
SYMMETRY	false
MEM_TOTAL	110000
SCF_CONVERGENCE = 6
THRESH=10
$end

$solvent
dielectric 4.90
$end
--------------------------------------------------------------

             Standard Nuclear Orientation (Angstroms)
    I     Atom           X                Y                Z
 ----------------------------------------------------------------
    1      C      -0.5160830000    -0.3339720000     0.0116850000
    2      C       0.1455170000     0.2211280000     1.1110850000
    3      C       1.2056170000     1.1106280000     0.7883850000
    4      H      -0.1369830000    -0.0159720000     2.1477850000
    5      C       1.3747170000     1.2524280000    -0.6008150000
    6      S       0.2058170000     0.2717280000    -1.4751150000
    7      C       2.0389170000     1.8098280000     1.8262850000
    8      H       1.7128170000     1.5362280000     2.8483850000
    9      H       1.9665170000     2.9140280000     1.7378850000
   10      H       3.1137170000     1.5467280000     1.7378850000
   11      C      -0.5160830000    -1.7746720000     0.0116850000
   12      H      -1.2103830000    -1.7748720000     0.8389850000
   13      H       0.1114170000    -2.4784720000     0.5382850000
   14      H      -1.2416830000    -2.2935720000    -0.5971150000
   15      H       2.1018170000     1.8626280000    -1.1499150000
 ----------------------------------------------------------------

   10    -629.3719361814      8.79e-07  Convergence criterion met
 Total energy in the final basis set =     -629.3719361814
        RIMP2         total energy =      -630.5602875568 a.u.

                    Orbital Energies (a.u.)
 --------------------------------------------------------------

 Alpha MOs
 -- Occupied --
-91.9716 -11.2747 -11.2531 -11.2493 -11.2475 -11.2287 -11.2093  -8.9725
 -6.6533  -6.6525  -6.6522  -1.1683  -1.0541  -0.9991  -0.9376  -0.8838
 -0.7463  -0.7291  -0.6455  -0.5845  -0.5822  -0.5668  -0.5551  -0.5425
 -0.5182  -0.4830  -0.4606  -0.4238  -0.3371  -0.2982

          Ground-State Mulliken Net Atomic Charges

     Atom                 Charge (a.u.)
  ----------------------------------------
      1 C                    -0.062278
      2 C                    -0.172662
      3 C                    -0.001541
      4 H                     0.181851
      5 C                    -0.202617
      6 S                     0.005107
      7 C                    -0.268693
      8 H                     0.101600
      9 H                     0.106869
     10 H                     0.105695
     11 C                    -0.376671
     12 H                     0.114337
     13 H                     0.150160
     14 H                     0.123680
     15 H                     0.195162
  ----------------------------------------
  Sum of atomic charges =     0.000000

                    Cartesian Multipole Moments
 -----------------------------------------------------------------
    Charge (ESU x 10^10)
                -0.0000
    Dipole Moment (Debye)
         X       1.4736      Y       0.2410      Z       2.1527
       Tot       2.6199
    Quadrupole Moments (Debye-Ang)
        XX     -48.8463     XY       5.3151     YY     -48.2720
        XZ       0.0096     YZ      -0.8343     ZZ     -48.2510

 Total job time:  159.25s(wall), 157.64s(cpu)
        *  Thank you very much for using Q-Chem.  Have a nice day.  *
