 Q-Chem 5.4, Q-Chem, Inc., Pleasanton, CA (2021)
 Q-Chem 5.4.0 for Intel X86 EM64T Linux

User input:
--------------------------------------------------------------
$molecule
0 1
C	-0.341376	-0.485421	0.010669
C	0.090424	0.262479	1.110069
C	0.782424	1.460979	0.787369
H	-0.093976	-0.056921	2.146769
C	0.892724	1.652079	-0.601831
S	0.129824	0.330679	-1.476131
C	1.326324	2.402979	1.825269
H	1.113524	2.034379	2.847369
H	0.880624	3.415779	1.736869
H	2.426324	2.523379	1.736869
C	-0.341376	-1.926121	0.010669
H	0.027924	-1.925821	1.025569
H	-1.111176	-2.629921	0.290769
H	0.548624	-2.445021	-0.313231
H	1.367424	2.474079	-1.150931
$end

$rem
JOBTYPE		SP
EXCHANGE	HF
CORRELATION	pRIMP2
BASIS		cc-pvtz
METHOD		rimp2
AUX_BASIS	rimp2-cc-pvtz
SOLVENT_METHOD	PCM
PURECART	11111
SYMMETRY	false
MEM_TOTAL	110000
SCF_CONVERGENCE = 6
THRESH=10
$end

$solvent
dielectric 4.90
$end
--------------------------------------------------------------

   10    -629.4045662229      5.09e-07  Convergence criterion met
 Total energy in the final basis set =     -629.4045662229
        RIMP2         total energy =      -630.5865151711 a.u.
 Total job time:  159.92s(wall), 158.96s(cpu)
        *  Thank you very much for using Q-Chem.  Have a nice day.  *
 Q-Chem 5.4, Q-Chem, Inc., Pleasanton, CA (2021)
 Q-Chem 5.4.0 for Intel X86 EM64T Linux

User input:
--------------------------------------------------------------
$molecule
0 1
C	-0.341376	-0.485421	0.010669
C	0.090424	0.262479	1.110069
C	0.782424	1.460979	0.787369
H	-0.093976	-0.056921	2.146769
C	0.892724	1.652079	-0.601831
S	0.129824	0.330679	-1.476131
C	1.326324	2.402979	1.825269
H	1.113524	2.034379	2.847369
H	0.880624	3.415779	1.736869
H	2.426324	2.523379	1.736869
C	-0.341376	-1.926121	0.010669
H	0.027924	-1.925821	1.025569
H	-1.111176	-2.629921	0.290769
H	0.548624	-2.445021	-0.313231
H	1.367424	2.474079	-1.150931
$end

$rem
JOBTYPE		SP
EXCHANGE	HF
CORRELATION	pRIMP2
BASIS		cc-pvtz
METHOD		rimp2
AUX_BASIS	rimp2-cc-pvtz
SOLVENT_METHOD	PCM
PURECART	11111
SYMMETRY	false
MEM_TOTAL	110000
SCF_CONVERGENCE = 6
THRESH=10
$end

$solvent
dielectric 4.90
$end
--------------------------------------------------------------

             Standard Nuclear Orientation (Angstroms)
    I     Atom           X                Y                Z
 ----------------------------------------------------------------
    1      C      -0.3413760000    -0.4854210000     0.0106690000
    2      C       0.0904240000     0.2624790000     1.1100690000
    3      C       0.7824240000     1.4609790000     0.7873690000
    4      H      -0.0939760000    -0.0569210000     2.1467690000
    5      C       0.8927240000     1.6520790000    -0.6018310000
    6      S       0.1298240000     0.3306790000    -1.4761310000
    7      C       1.3263240000     2.4029790000     1.8252690000
    8      H       1.1135240000     2.0343790000     2.8473690000
    9      H       0.8806240000     3.4157790000     1.7368690000
   10      H       2.4263240000     2.5233790000     1.7368690000
   11      C      -0.3413760000    -1.9261210000     0.0106690000
   12      H       0.0279240000    -1.9258210000     1.0255690000
   13      H      -1.1111760000    -2.6299210000     0.2907690000
   14      H       0.5486240000    -2.4450210000    -0.3132310000
   15      H       1.3674240000     2.4740790000    -1.1509310000
 ----------------------------------------------------------------

   10    -629.4045662229      5.09e-07  Convergence criterion met
 Total energy in the final basis set =     -629.4045662229
        RIMP2         total energy =      -630.5865151711 a.u.

                    Orbital Energies (a.u.)
 --------------------------------------------------------------

 Alpha MOs
 -- Occupied --
-91.9756 -11.2721 -11.2608 -11.2473 -11.2357 -11.2277 -11.2132  -8.9757
 -6.6566  -6.6560  -6.6556  -1.1640  -1.0543  -0.9994  -0.9377  -0.8835
 -0.7431  -0.7260  -0.6465  -0.5914  -0.5778  -0.5673  -0.5576  -0.5422
 -0.5121  -0.4768  -0.4686  -0.4402  -0.3355  -0.3013

          Ground-State Mulliken Net Atomic Charges

     Atom                 Charge (a.u.)
  ----------------------------------------
      1 C                     0.023327
      2 C                    -0.252330
      3 C                     0.031265
      4 H                     0.175985
      5 C                    -0.244269
      6 S                    -0.001699
      7 C                    -0.270740
      8 H                     0.101231
      9 H                     0.107157
     10 H                     0.106367
     11 C                    -0.373897
     12 H                     0.129242
     13 H                     0.138755
     14 H                     0.136681
     15 H                     0.192924
  ----------------------------------------
  Sum of atomic charges =     0.000000

                    Cartesian Multipole Moments
 -----------------------------------------------------------------
    Charge (ESU x 10^10)
                -0.0000
    Dipole Moment (Debye)
         X       1.0941      Y      -0.0203      Z       2.1347
       Tot       2.3988
    Quadrupole Moments (Debye-Ang)
        XX     -51.9471     XY       3.3885     YY     -44.8793
        XZ      -0.3305     YZ      -1.0731     ZZ     -48.6583

 Total job time:  159.84s(wall), 157.59s(cpu)
        *  Thank you very much for using Q-Chem.  Have a nice day.  *
