 Q-Chem 5.4, Q-Chem, Inc., Pleasanton, CA (2021)
 Q-Chem 5.4.0 for Intel X86 EM64T Linux

User input:
--------------------------------------------------------------
$molecule
0 1
C	-0.284767	-0.512744	0.019522
C	0.080233	0.269956	1.118922
C	0.665133	1.524156	0.796222
H	-0.075667	-0.064344	2.155622
C	0.758433	1.724156	-0.592978
S	0.113533	0.341356	-1.467278
C	1.124833	2.509956	1.834122
H	0.944933	2.124256	2.856222
H	0.592533	3.480156	1.745722
H	2.210133	2.725856	1.745722
C	-0.284767	-1.953444	0.019522
H	-0.824667	-1.953644	-0.915878
H	-0.994267	-2.657244	0.429022
H	0.535433	-2.472344	-0.454078
H	1.159533	2.584456	-1.142078
$end

$rem
JOBTYPE		SP
EXCHANGE	HF
CORRELATION	pRIMP2
BASIS		cc-pvtz
METHOD		rimp2
AUX_BASIS	rimp2-cc-pvtz
SOLVENT_METHOD	PCM
PURECART	11111
SYMMETRY	false
MEM_TOTAL	110000
SCF_CONVERGENCE = 6
THRESH=10
$end

$solvent
dielectric 4.90
$end
--------------------------------------------------------------

             Standard Nuclear Orientation (Angstroms)
    I     Atom           X                Y                Z
 ----------------------------------------------------------------
    1      C      -0.2847670000    -0.5127440000     0.0195220000
    2      C       0.0802330000     0.2699560000     1.1189220000
    3      C       0.6651330000     1.5241560000     0.7962220000
    4      H      -0.0756670000    -0.0643440000     2.1556220000
    5      C       0.7584330000     1.7241560000    -0.5929780000
    6      S       0.1135330000     0.3413560000    -1.4672780000
    7      C       1.1248330000     2.5099560000     1.8341220000
    8      H       0.9449330000     2.1242560000     2.8562220000
    9      H       0.5925330000     3.4801560000     1.7457220000
   10      H       2.2101330000     2.7258560000     1.7457220000
   11      C      -0.2847670000    -1.9534440000     0.0195220000
   12      H      -0.8246670000    -1.9536440000    -0.9158780000
   13      H      -0.9942670000    -2.6572440000     0.4290220000
   14      H       0.5354330000    -2.4723440000    -0.4540780000
   15      H       1.1595330000     2.5844560000    -1.1420780000
 ----------------------------------------------------------------

   10    -629.4085603708      5.21e-07  Convergence criterion met
 Total energy in the final basis set =     -629.4085603708
        RIMP2         total energy =      -630.5886608502 a.u.

                    Orbital Energies (a.u.)
 --------------------------------------------------------------

 Alpha MOs
 -- Occupied --
-91.9799 -11.2713 -11.2604 -11.2472 -11.2307 -11.2269 -11.2148  -8.9798
 -6.6607  -6.6602  -6.6596  -1.1622  -1.0549  -0.9951  -0.9455  -0.8815
 -0.7479  -0.7196  -0.6465  -0.5911  -0.5750  -0.5668  -0.5530  -0.5468
 -0.5109  -0.4817  -0.4637  -0.4467  -0.3381  -0.2997

          Ground-State Mulliken Net Atomic Charges

     Atom                 Charge (a.u.)
  ----------------------------------------
      1 C                     0.008945
      2 C                    -0.245058
      3 C                     0.034490
      4 H                     0.179400
      5 C                    -0.247505
      6 S                    -0.000414
      7 C                    -0.271993
      8 H                     0.101843
      9 H                     0.106833
     10 H                     0.106321
     11 C                    -0.365146
     12 H                     0.112949
     13 H                     0.153241
     14 H                     0.131253
     15 H                     0.194840
  ----------------------------------------
  Sum of atomic charges =     0.000000

                    Cartesian Multipole Moments
 -----------------------------------------------------------------
    Charge (ESU x 10^10)
                -0.0000
    Dipole Moment (Debye)
         X       0.4076      Y       0.0293      Z       0.9773
       Tot       1.0593
    Quadrupole Moments (Debye-Ang)
        XX     -52.2475     XY       4.2454     YY     -43.8786
        XZ      -0.1245     YZ       1.0878     ZZ     -48.6787

 Total job time:  156.88s(wall), 155.25s(cpu)
        *  Thank you very much for using Q-Chem.  Have a nice day.  *
