 Q-Chem 5.4, Q-Chem, Inc., Pleasanton, CA (2021)
 Q-Chem 5.4.0 for Intel X86 EM64T Linux

User input:
--------------------------------------------------------------
$molecule
0 1
C	-0.173374	-0.553189	0.010669
C	0.050126	0.281011	1.110069
C	0.408326	1.617711	0.787369
H	-0.045274	-0.075289	2.146769
C	0.465526	1.830811	-0.601831
S	0.070526	0.357111	-1.476131
C	0.689926	2.668411	1.825269
H	0.579726	2.257311	2.847369
H	-0.002674	3.531411	1.736869
H	1.721226	3.069411	1.736869
C	-0.173374	-1.993889	0.010669
H	-0.542874	-1.994089	1.025469
H	0.596426	-2.697689	0.290869
H	-1.063374	-2.512789	-0.313231
H	0.711226	2.747711	-1.150931
$end

$rem
JOBTYPE		SP
EXCHANGE	HF
CORRELATION	pRIMP2
BASIS		cc-pvtz
METHOD		rimp2
AUX_BASIS	rimp2-cc-pvtz
SOLVENT_METHOD	PCM
PURECART	11111
SYMMETRY	false
MEM_TOTAL	110000
SCF_CONVERGENCE = 6
THRESH=10
$end

$solvent
dielectric 4.90
$end
--------------------------------------------------------------

             Standard Nuclear Orientation (Angstroms)
    I     Atom           X                Y                Z
 ----------------------------------------------------------------
    1      C      -0.1733740000    -0.5531890000     0.0106690000
    2      C       0.0501260000     0.2810110000     1.1100690000
    3      C       0.4083260000     1.6177110000     0.7873690000
    4      H      -0.0452740000    -0.0752890000     2.1467690000
    5      C       0.4655260000     1.8308110000    -0.6018310000
    6      S       0.0705260000     0.3571110000    -1.4761310000
    7      C       0.6899260000     2.6684110000     1.8252690000
    8      H       0.5797260000     2.2573110000     2.8473690000
    9      H      -0.0026740000     3.5314110000     1.7368690000
   10      H       1.7212260000     3.0694110000     1.7368690000
   11      C      -0.1733740000    -1.9938890000     0.0106690000
   12      H      -0.5428740000    -1.9940890000     1.0254690000
   13      H       0.5964260000    -2.6976890000     0.2908690000
   14      H      -1.0633740000    -2.5127890000    -0.3132310000
   15      H       0.7112260000     2.7477110000    -1.1509310000
 ----------------------------------------------------------------

   10    -629.4202501166      5.02e-07  Convergence criterion met
 Total energy in the final basis set =     -629.4202501166
        RIMP2         total energy =      -630.5991798313 a.u.

                    Orbital Energies (a.u.)
 --------------------------------------------------------------

 Alpha MOs
 -- Occupied --
-91.9747 -11.2755 -11.2585 -11.2472 -11.2349 -11.2275 -11.2158  -8.9749
 -6.6558  -6.6553  -6.6547  -1.1613  -1.0538  -0.9994  -0.9398  -0.8844
 -0.7426  -0.7242  -0.6489  -0.5895  -0.5778  -0.5664  -0.5593  -0.5421
 -0.5115  -0.4850  -0.4666  -0.4378  -0.3379  -0.3027

          Ground-State Mulliken Net Atomic Charges

     Atom                 Charge (a.u.)
  ----------------------------------------
      1 C                     0.045524
      2 C                    -0.269568
      3 C                     0.036033
      4 H                     0.178255
      5 C                    -0.251031
      6 S                    -0.006324
      7 C                    -0.272773
      8 H                     0.101210
      9 H                     0.106962
     10 H                     0.107261
     11 C                    -0.363540
     12 H                     0.118824
     13 H                     0.143173
     14 H                     0.132665
     15 H                     0.193330
  ----------------------------------------
  Sum of atomic charges =     0.000000

                    Cartesian Multipole Moments
 -----------------------------------------------------------------
    Charge (ESU x 10^10)
                -0.0000
    Dipole Moment (Debye)
         X       0.1696      Y      -0.0364      Z       2.1241
       Tot       2.1311
    Quadrupole Moments (Debye-Ang)
        XX     -53.1359     XY       2.6440     YY     -42.8272
        XZ       0.1605     YZ      -1.0771     ZZ     -48.8715

 Total job time:  155.59s(wall), 154.72s(cpu)
        *  Thank you very much for using Q-Chem.  Have a nice day.  *
