 Q-Chem 5.4, Q-Chem, Inc., Pleasanton, CA (2021)
 Q-Chem 5.4.0 for Intel X86 EM64T Linux

User input:
--------------------------------------------------------------
$molecule
0 1
C	-0.431285	-0.417597	0.016152
C	0.123815	0.243903	1.115552
C	1.013415	1.304103	0.792852
H	-0.113185	-0.038597	2.152252
C	1.155315	1.473103	-0.596348
S	0.174515	0.304303	-1.470648
C	1.712615	2.137303	1.830752
H	1.439015	1.811303	2.852852
H	1.449615	3.212103	1.742352
H	2.816815	2.064903	1.742352
C	-0.431285	-1.858297	0.016152
H	-1.446085	-1.857997	-0.353348
H	-0.151085	-2.562097	-0.753648
H	-0.755185	-2.377197	0.906152
H	1.765415	2.200203	-1.145448
$end

$rem
JOBTYPE		SP
EXCHANGE	HF
CORRELATION	pRIMP2
BASIS		cc-pvtz
METHOD		rimp2
AUX_BASIS	rimp2-cc-pvtz
SOLVENT_METHOD	PCM
PURECART	11111
SYMMETRY	false
MEM_TOTAL	110000
SCF_CONVERGENCE = 6
THRESH=10
$end

$solvent
dielectric 4.90
$end
--------------------------------------------------------------

             Standard Nuclear Orientation (Angstroms)
    I     Atom           X                Y                Z
 ----------------------------------------------------------------
    1      C      -0.4312850000    -0.4175970000     0.0161520000
    2      C       0.1238150000     0.2439030000     1.1155520000
    3      C       1.0134150000     1.3041030000     0.7928520000
    4      H      -0.1131850000    -0.0385970000     2.1522520000
    5      C       1.1553150000     1.4731030000    -0.5963480000
    6      S       0.1745150000     0.3043030000    -1.4706480000
    7      C       1.7126150000     2.1373030000     1.8307520000
    8      H       1.4390150000     1.8113030000     2.8528520000
    9      H       1.4496150000     3.2121030000     1.7423520000
   10      H       2.8168150000     2.0649030000     1.7423520000
   11      C      -0.4312850000    -1.8582970000     0.0161520000
   12      H      -1.4460850000    -1.8579970000    -0.3533480000
   13      H      -0.1510850000    -2.5620970000    -0.7536480000
   14      H      -0.7551850000    -2.3771970000     0.9061520000
   15      H       1.7654150000     2.2002030000    -1.1454480000
 ----------------------------------------------------------------

   10    -629.3827039875      6.19e-07  Convergence criterion met
 Total energy in the final basis set =     -629.3827039875
        RIMP2         total energy =      -630.5679411785 a.u.

                    Orbital Energies (a.u.)
 --------------------------------------------------------------

 Alpha MOs
 -- Occupied --
-91.9761 -11.2658 -11.2631 -11.2477 -11.2349 -11.2272 -11.2114  -8.9764
 -6.6574  -6.6567  -6.6562  -1.1639  -1.0540  -0.9960  -0.9421  -0.8822
 -0.7469  -0.7224  -0.6430  -0.5864  -0.5746  -0.5729  -0.5505  -0.5444
 -0.5140  -0.4884  -0.4563  -0.4443  -0.3371  -0.2878

          Ground-State Mulliken Net Atomic Charges

     Atom                 Charge (a.u.)
  ----------------------------------------
      1 C                    -0.026298
      2 C                    -0.224309
      3 C                     0.033155
      4 H                     0.182404
      5 C                    -0.240004
      6 S                     0.000117
      7 C                    -0.270215
      8 H                     0.101393
      9 H                     0.106939
     10 H                     0.105562
     11 C                    -0.380453
     12 H                     0.126031
     13 H                     0.160767
     14 H                     0.130000
     15 H                     0.194910
  ----------------------------------------
  Sum of atomic charges =     0.000000

                    Cartesian Multipole Moments
 -----------------------------------------------------------------
    Charge (ESU x 10^10)
                -0.0000
    Dipole Moment (Debye)
         X       0.5808      Y      -0.0991      Z       1.3600
       Tot       1.4822
    Quadrupole Moments (Debye-Ang)
        XX     -50.5473     XY       5.6105     YY     -46.2860
        XZ      -0.1597     YZ       0.6079     ZZ     -48.1951

 Total job time:  157.94s(wall), 154.56s(cpu)
        *  Thank you very much for using Q-Chem.  Have a nice day.  *
