 Q-Chem 5.4, Q-Chem, Inc., Pleasanton, CA (2021)
 Q-Chem 5.4.0 for Intel X86 EM64T Linux

User input:
--------------------------------------------------------------
$molecule
0 1
C	-0.343091	-0.485421	0.017955
C	0.088709	0.262479	1.117355
C	0.780709	1.460979	0.794655
H	-0.095691	-0.056921	2.154055
C	0.891009	1.652079	-0.594545
S	0.128109	0.330679	-1.468845
C	1.324609	2.402979	1.832555
H	1.111809	2.034379	2.854655
H	0.878909	3.415779	1.744155
H	2.424609	2.523379	1.744155
C	-0.343091	-1.926121	0.017955
H	0.592309	-1.925821	-0.521945
H	0.066409	-2.629921	0.727455
H	-0.816691	-2.445021	-0.802245
H	1.365709	2.474079	-1.143645
$end

$rem
JOBTYPE		SP
EXCHANGE	HF
CORRELATION	pRIMP2
BASIS		cc-pvtz
METHOD		rimp2
AUX_BASIS	rimp2-cc-pvtz
SOLVENT_METHOD	PCM
PURECART	11111
SYMMETRY	false
MEM_TOTAL	110000
SCF_CONVERGENCE = 6
THRESH=10
$end

$solvent
dielectric 4.90
$end
--------------------------------------------------------------

   10    -629.4063689027      6.92e-07  Convergence criterion met
 Total energy in the final basis set =     -629.4063689027
        RIMP2         total energy =      -630.5856344024 a.u.
 Total job time:  157.82s(wall), 157.27s(cpu)
        *  Thank you very much for using Q-Chem.  Have a nice day.  *
 Q-Chem 5.4, Q-Chem, Inc., Pleasanton, CA (2021)
 Q-Chem 5.4.0 for Intel X86 EM64T Linux

User input:
--------------------------------------------------------------
$molecule
0 1
C	-0.343091	-0.485421	0.017955
C	0.088709	0.262479	1.117355
C	0.780709	1.460979	0.794655
H	-0.095691	-0.056921	2.154055
C	0.891009	1.652079	-0.594545
S	0.128109	0.330679	-1.468845
C	1.324609	2.402979	1.832555
H	1.111809	2.034379	2.854655
H	0.878909	3.415779	1.744155
H	2.424609	2.523379	1.744155
C	-0.343091	-1.926121	0.017955
H	0.592309	-1.925821	-0.521945
H	0.066409	-2.629921	0.727455
H	-0.816691	-2.445021	-0.802245
H	1.365709	2.474079	-1.143645
$end

$rem
JOBTYPE		SP
EXCHANGE	HF
CORRELATION	pRIMP2
BASIS		cc-pvtz
METHOD		rimp2
AUX_BASIS	rimp2-cc-pvtz
SOLVENT_METHOD	PCM
PURECART	11111
SYMMETRY	false
MEM_TOTAL	110000
SCF_CONVERGENCE = 6
THRESH=10
$end

$solvent
dielectric 4.90
$end
--------------------------------------------------------------

             Standard Nuclear Orientation (Angstroms)
    I     Atom           X                Y                Z
 ----------------------------------------------------------------
    1      C      -0.3430910000    -0.4854210000     0.0179550000
    2      C       0.0887090000     0.2624790000     1.1173550000
    3      C       0.7807090000     1.4609790000     0.7946550000
    4      H      -0.0956910000    -0.0569210000     2.1540550000
    5      C       0.8910090000     1.6520790000    -0.5945450000
    6      S       0.1281090000     0.3306790000    -1.4688450000
    7      C       1.3246090000     2.4029790000     1.8325550000
    8      H       1.1118090000     2.0343790000     2.8546550000
    9      H       0.8789090000     3.4157790000     1.7441550000
   10      H       2.4246090000     2.5233790000     1.7441550000
   11      C      -0.3430910000    -1.9261210000     0.0179550000
   12      H       0.5923090000    -1.9258210000    -0.5219450000
   13      H       0.0664090000    -2.6299210000     0.7274550000
   14      H      -0.8166910000    -2.4450210000    -0.8022450000
   15      H       1.3657090000     2.4740790000    -1.1436450000
 ----------------------------------------------------------------

   10    -629.4063689027      6.92e-07  Convergence criterion met
 Total energy in the final basis set =     -629.4063689027
        RIMP2         total energy =      -630.5856344024 a.u.

                    Orbital Energies (a.u.)
 --------------------------------------------------------------

 Alpha MOs
 -- Occupied --
-91.9754 -11.2774 -11.2572 -11.2474 -11.2295 -11.2270 -11.2184  -8.9760
 -6.6569  -6.6563  -6.6557  -1.1643  -1.0567  -0.9951  -0.9433  -0.8808
 -0.7471  -0.7203  -0.6481  -0.5862  -0.5800  -0.5645  -0.5526  -0.5475
 -0.5097  -0.4910  -0.4624  -0.4513  -0.3401  -0.2907

          Ground-State Mulliken Net Atomic Charges

     Atom                 Charge (a.u.)
  ----------------------------------------
      1 C                     0.046863
      2 C                    -0.311156
      3 C                     0.057121
      4 H                     0.178173
      5 C                    -0.261061
      6 S                    -0.005608
      7 C                    -0.270627
      8 H                     0.101615
      9 H                     0.107760
     10 H                     0.106654
     11 C                    -0.371135
     12 H                     0.140897
     13 H                     0.159195
     14 H                     0.128050
     15 H                     0.193259
  ----------------------------------------
  Sum of atomic charges =     0.000000

                    Cartesian Multipole Moments
 -----------------------------------------------------------------
    Charge (ESU x 10^10)
                -0.0000
    Dipole Moment (Debye)
         X       1.3456      Y      -0.3840      Z       1.1950
       Tot       1.8402
    Quadrupole Moments (Debye-Ang)
        XX     -52.5768     XY       2.6482     YY     -44.3900
        XZ       0.4050     YZ       0.7491     ZZ     -48.5794

 Total job time:  156.95s(wall), 155.77s(cpu)
        *  Thank you very much for using Q-Chem.  Have a nice day.  *
