 Q-Chem 5.4, Q-Chem, Inc., Pleasanton, CA (2021)
 Q-Chem 5.4.0 for Intel X86 EM64T Linux

User input:
--------------------------------------------------------------
$molecule
0 1
C	-0.282333	-0.512744	0.017232
C	0.082667	0.269956	1.116632
C	0.667567	1.524156	0.793932
H	-0.073233	-0.064344	2.153332
C	0.760867	1.724156	-0.595268
S	0.115967	0.341356	-1.469568
C	1.127267	2.509956	1.831832
H	0.947367	2.124256	2.853932
H	0.594967	3.480156	1.743432
H	2.212567	2.725856	1.743432
C	-0.282333	-1.953444	0.017232
H	-1.297133	-1.953644	-0.352268
H	-0.562533	-2.657244	0.787032
H	0.041567	-2.472344	-0.872768
H	1.161967	2.584456	-1.144368
$end

$rem
JOBTYPE		SP
EXCHANGE	HF
CORRELATION	pRIMP2
BASIS		cc-pvtz
METHOD		rimp2
AUX_BASIS	rimp2-cc-pvtz
SOLVENT_METHOD	PCM
PURECART	11111
SYMMETRY	false
MEM_TOTAL	110000
SCF_CONVERGENCE = 6
THRESH=10
$end

$solvent
dielectric 4.90
$end
--------------------------------------------------------------

             Standard Nuclear Orientation (Angstroms)
    I     Atom           X                Y                Z
 ----------------------------------------------------------------
    1      C      -0.2823330000    -0.5127440000     0.0172320000
    2      C       0.0826670000     0.2699560000     1.1166320000
    3      C       0.6675670000     1.5241560000     0.7939320000
    4      H      -0.0732330000    -0.0643440000     2.1533320000
    5      C       0.7608670000     1.7241560000    -0.5952680000
    6      S       0.1159670000     0.3413560000    -1.4695680000
    7      C       1.1272670000     2.5099560000     1.8318320000
    8      H       0.9473670000     2.1242560000     2.8539320000
    9      H       0.5949670000     3.4801560000     1.7434320000
   10      H       2.2125670000     2.7258560000     1.7434320000
   11      C      -0.2823330000    -1.9534440000     0.0172320000
   12      H      -1.2971330000    -1.9536440000    -0.3522680000
   13      H      -0.5625330000    -2.6572440000     0.7870320000
   14      H       0.0415670000    -2.4723440000    -0.8727680000
   15      H       1.1619670000     2.5844560000    -1.1443680000
 ----------------------------------------------------------------

   10    -629.4063116551      5.79e-07  Convergence criterion met
 Total energy in the final basis set =     -629.4063116551
        RIMP2         total energy =      -630.5857512790 a.u.

                    Orbital Energies (a.u.)
 --------------------------------------------------------------

 Alpha MOs
 -- Occupied --
-91.9782 -11.2771 -11.2548 -11.2469 -11.2270 -11.2265 -11.2168  -8.9782
 -6.6592  -6.6586  -6.6580  -1.1612  -1.0550  -0.9959  -0.9436  -0.8821
 -0.7454  -0.7194  -0.6470  -0.5870  -0.5735  -0.5685  -0.5528  -0.5459
 -0.5103  -0.4911  -0.4587  -0.4546  -0.3381  -0.2887

          Ground-State Mulliken Net Atomic Charges

     Atom                 Charge (a.u.)
  ----------------------------------------
      1 C                     0.016324
      2 C                    -0.264386
      3 C                     0.041936
      4 H                     0.179819
      5 C                    -0.263359
      6 S                    -0.001529
      7 C                    -0.271995
      8 H                     0.101397
      9 H                     0.107029
     10 H                     0.106456
     11 C                    -0.378001
     12 H                     0.131285
     13 H                     0.159732
     14 H                     0.140868
     15 H                     0.194422
  ----------------------------------------
  Sum of atomic charges =     0.000000

                    Cartesian Multipole Moments
 -----------------------------------------------------------------
    Charge (ESU x 10^10)
                -0.0000
    Dipole Moment (Debye)
         X      -0.0623      Y      -0.4002      Z       1.2249
       Tot       1.2901
    Quadrupole Moments (Debye-Ang)
        XX     -52.5504     XY       4.8203     YY     -43.6865
        XZ      -0.1287     YZ       0.5306     ZZ     -48.4507

 Total job time:  156.92s(wall), 155.17s(cpu)
        *  Thank you very much for using Q-Chem.  Have a nice day.  *
