 Q-Chem 5.4, Q-Chem, Inc., Pleasanton, CA (2021)
 Q-Chem 5.4.0 for Intel X86 EM64T Linux

User input:
--------------------------------------------------------------
$molecule
0 1
C	-0.431678	-0.417597	0.012833
C	0.123422	0.243903	1.112233
C	1.013022	1.304103	0.789533
H	-0.113578	-0.038597	2.148933
C	1.154922	1.473103	-0.599667
S	0.174122	0.304303	-1.473967
C	1.712222	2.137303	1.827433
H	1.438622	1.811303	2.849533
H	1.449222	3.212103	1.739033
H	2.816422	2.064903	1.739033
C	-0.431678	-1.858297	0.012833
H	-1.446578	-1.857997	0.382133
H	-0.711778	-2.562097	-0.756967
H	-0.107778	-2.377197	0.902833
H	1.765022	2.200203	-1.148767
$end

$rem
JOBTYPE		SP
EXCHANGE	HF
CORRELATION	pRIMP2
BASIS		cc-pvtz
METHOD		rimp2
AUX_BASIS	rimp2-cc-pvtz
SOLVENT_METHOD	PCM
PURECART	11111
SYMMETRY	false
MEM_TOTAL	110000
SCF_CONVERGENCE = 6
THRESH=10
$end

$solvent
dielectric 4.90
$end
--------------------------------------------------------------

             Standard Nuclear Orientation (Angstroms)
    I     Atom           X                Y                Z
 ----------------------------------------------------------------
    1      C      -0.4316780000    -0.4175970000     0.0128330000
    2      C       0.1234220000     0.2439030000     1.1122330000
    3      C       1.0130220000     1.3041030000     0.7895330000
    4      H      -0.1135780000    -0.0385970000     2.1489330000
    5      C       1.1549220000     1.4731030000    -0.5996670000
    6      S       0.1741220000     0.3043030000    -1.4739670000
    7      C       1.7122220000     2.1373030000     1.8274330000
    8      H       1.4386220000     1.8113030000     2.8495330000
    9      H       1.4492220000     3.2121030000     1.7390330000
   10      H       2.8164220000     2.0649030000     1.7390330000
   11      C      -0.4316780000    -1.8582970000     0.0128330000
   12      H      -1.4465780000    -1.8579970000     0.3821330000
   13      H      -0.7117780000    -2.5620970000    -0.7569670000
   14      H      -0.1077780000    -2.3771970000     0.9028330000
   15      H       1.7650220000     2.2002030000    -1.1487670000
 ----------------------------------------------------------------

   10    -629.3845644652      6.34e-07  Convergence criterion met
 Total energy in the final basis set =     -629.3845644652
        RIMP2         total energy =      -630.5703229739 a.u.

                    Orbital Energies (a.u.)
 --------------------------------------------------------------

 Alpha MOs
 -- Occupied --
-91.9735 -11.2680 -11.2612 -11.2480 -11.2360 -11.2274 -11.2122  -8.9740
 -6.6549  -6.6541  -6.6537  -1.1638  -1.0541  -0.9973  -0.9395  -0.8830
 -0.7446  -0.7235  -0.6435  -0.5864  -0.5781  -0.5671  -0.5547  -0.5434
 -0.5137  -0.4934  -0.4588  -0.4373  -0.3367  -0.2873

          Ground-State Mulliken Net Atomic Charges

     Atom                 Charge (a.u.)
  ----------------------------------------
      1 C                     0.003392
      2 C                    -0.256119
      3 C                     0.036542
      4 H                     0.177353
      5 C                    -0.241811
      6 S                     0.004385
      7 C                    -0.269609
      8 H                     0.101364
      9 H                     0.107127
     10 H                     0.106142
     11 C                    -0.388038
     12 H                     0.130509
     13 H                     0.156693
     14 H                     0.140188
     15 H                     0.191883
  ----------------------------------------
  Sum of atomic charges =     0.000000

                    Cartesian Multipole Moments
 -----------------------------------------------------------------
    Charge (ESU x 10^10)
                -0.0000
    Dipole Moment (Debye)
         X       0.4807      Y      -0.2377      Z       1.8089
       Tot       1.8867
    Quadrupole Moments (Debye-Ang)
        XX     -50.4670     XY       5.7754     YY     -46.2861
        XZ       0.2342     YZ      -0.0965     ZZ     -48.2621

 Total job time:  156.57s(wall), 155.14s(cpu)
        *  Thank you very much for using Q-Chem.  Have a nice day.  *
