 Q-Chem 5.4, Q-Chem, Inc., Pleasanton, CA (2021)
 Q-Chem 5.4.0 for Intel X86 EM64T Linux

User input:
--------------------------------------------------------------
$molecule
0 1
C	-0.515280	-0.333972	0.017232
C	0.146320	0.221128	1.116632
C	1.206420	1.110628	0.793932
H	-0.136180	-0.015972	2.153332
C	1.375520	1.252428	-0.595268
S	0.206620	0.271728	-1.469568
C	2.039720	1.809828	1.831832
H	1.713620	1.536228	2.853932
H	1.967320	2.914028	1.743432
H	3.114520	1.546728	1.743432
C	-0.515280	-1.774672	0.017232
H	-1.530080	-1.774872	-0.352268
H	-0.795480	-2.478472	0.787032
H	-0.191380	-2.293572	-0.872768
H	2.102620	1.862628	-1.144368
$end

$rem
JOBTYPE		SP
EXCHANGE	HF
CORRELATION	pRIMP2
BASIS		cc-pvtz
METHOD		rimp2
AUX_BASIS	rimp2-cc-pvtz
SOLVENT_METHOD	PCM
PURECART	11111
SYMMETRY	false
MEM_TOTAL	110000
SCF_CONVERGENCE = 6
THRESH=10
$end

$solvent
dielectric 4.90
$end
--------------------------------------------------------------

             Standard Nuclear Orientation (Angstroms)
    I     Atom           X                Y                Z
 ----------------------------------------------------------------
    1      C      -0.5152800000    -0.3339720000     0.0172320000
    2      C       0.1463200000     0.2211280000     1.1166320000
    3      C       1.2064200000     1.1106280000     0.7939320000
    4      H      -0.1361800000    -0.0159720000     2.1533320000
    5      C       1.3755200000     1.2524280000    -0.5952680000
    6      S       0.2066200000     0.2717280000    -1.4695680000
    7      C       2.0397200000     1.8098280000     1.8318320000
    8      H       1.7136200000     1.5362280000     2.8539320000
    9      H       1.9673200000     2.9140280000     1.7434320000
   10      H       3.1145200000     1.5467280000     1.7434320000
   11      C      -0.5152800000    -1.7746720000     0.0172320000
   12      H      -1.5300800000    -1.7748720000    -0.3522680000
   13      H      -0.7954800000    -2.4784720000     0.7870320000
   14      H      -0.1913800000    -2.2935720000    -0.8727680000
   15      H       2.1026200000     1.8626280000    -1.1443680000
 ----------------------------------------------------------------

   11    -629.3606706730      4.24e-07  Convergence criterion met
 Total energy in the final basis set =     -629.3606706730
        RIMP2         total energy =      -630.5496313409 a.u.

                    Orbital Energies (a.u.)
 --------------------------------------------------------------

 Alpha MOs
 -- Occupied --
-91.9753 -11.2707 -11.2552 -11.2477 -11.2408 -11.2275 -11.2074  -8.9759
 -6.6568  -6.6560  -6.6556  -1.1671  -1.0542  -0.9954  -0.9421  -0.8811
 -0.7490  -0.7248  -0.6427  -0.5875  -0.5747  -0.5684  -0.5525  -0.5437
 -0.5153  -0.4873  -0.4575  -0.4358  -0.3361  -0.2861

          Ground-State Mulliken Net Atomic Charges

     Atom                 Charge (a.u.)
  ----------------------------------------
      1 C                    -0.066519
      2 C                    -0.176003
      3 C                     0.013283
      4 H                     0.182801
      5 C                    -0.216779
      6 S                     0.005270
      7 C                    -0.270029
      8 H                     0.101458
      9 H                     0.106766
     10 H                     0.104671
     11 C                    -0.389317
     12 H                     0.123660
     13 H                     0.148367
     14 H                     0.135982
     15 H                     0.196388
  ----------------------------------------
  Sum of atomic charges =     0.000000

                    Cartesian Multipole Moments
 -----------------------------------------------------------------
    Charge (ESU x 10^10)
                -0.0000
    Dipole Moment (Debye)
         X       1.1642      Y       0.0229      Z       1.4334
       Tot       1.8468
    Quadrupole Moments (Debye-Ang)
        XX     -49.1398     XY       5.6730     YY     -48.2341
        XZ      -0.3572     YZ       0.2426     ZZ     -47.9004

 Total job time:  171.24s(wall), 169.90s(cpu)
        *  Thank you very much for using Q-Chem.  Have a nice day.  *
