 Q-Chem 5.4, Q-Chem, Inc., Pleasanton, CA (2021)
 Q-Chem 5.4.0 for Intel X86 EM64T Linux

User input:
--------------------------------------------------------------
$molecule
0 1
C	-0.122690	-0.566007	0.015308
C	0.027310	0.284493	1.114708
C	0.267610	1.647393	0.792008
H	-0.036790	-0.078707	2.151408
C	0.306010	1.864693	-0.597192
S	0.041010	0.362093	-1.471492
C	0.456510	2.718593	1.829908
H	0.382610	2.299393	2.852008
H	-0.308690	3.517893	1.741508
H	1.449010	3.207893	1.741508
C	-0.122690	-2.006707	0.015308
H	0.940910	-2.006907	-0.172092
H	-0.264890	-2.710507	-0.791492
H	0.041810	-2.525607	0.948008
H	0.470810	2.799393	-1.146292
$end

$rem
JOBTYPE		SP
EXCHANGE	HF
CORRELATION	pRIMP2
BASIS		cc-pvtz
METHOD		rimp2
AUX_BASIS	rimp2-cc-pvtz
SOLVENT_METHOD	PCM
PURECART	11111
SYMMETRY	false
MEM_TOTAL	110000
SCF_CONVERGENCE = 6
THRESH=10
$end

$solvent
dielectric 4.90
$end
--------------------------------------------------------------

   10    -629.4246615336      7.07e-07  Convergence criterion met
 Total energy in the final basis set =     -629.4246615336
        RIMP2         total energy =      -630.5997899444 a.u.
 Total job time:  158.17s(wall), 156.46s(cpu)
        *  Thank you very much for using Q-Chem.  Have a nice day.  *
 Q-Chem 5.4, Q-Chem, Inc., Pleasanton, CA (2021)
 Q-Chem 5.4.0 for Intel X86 EM64T Linux

User input:
--------------------------------------------------------------
$molecule
0 1
C	-0.122690	-0.566007	0.015308
C	0.027310	0.284493	1.114708
C	0.267610	1.647393	0.792008
H	-0.036790	-0.078707	2.151408
C	0.306010	1.864693	-0.597192
S	0.041010	0.362093	-1.471492
C	0.456510	2.718593	1.829908
H	0.382610	2.299393	2.852008
H	-0.308690	3.517893	1.741508
H	1.449010	3.207893	1.741508
C	-0.122690	-2.006707	0.015308
H	0.940910	-2.006907	-0.172092
H	-0.264890	-2.710507	-0.791492
H	0.041810	-2.525607	0.948008
H	0.470810	2.799393	-1.146292
$end

$rem
JOBTYPE		SP
EXCHANGE	HF
CORRELATION	pRIMP2
BASIS		cc-pvtz
METHOD		rimp2
AUX_BASIS	rimp2-cc-pvtz
SOLVENT_METHOD	PCM
PURECART	11111
SYMMETRY	false
MEM_TOTAL	110000
SCF_CONVERGENCE = 6
THRESH=10
$end

$solvent
dielectric 4.90
$end
--------------------------------------------------------------

             Standard Nuclear Orientation (Angstroms)
    I     Atom           X                Y                Z
 ----------------------------------------------------------------
    1      C      -0.1226900000    -0.5660070000     0.0153080000
    2      C       0.0273100000     0.2844930000     1.1147080000
    3      C       0.2676100000     1.6473930000     0.7920080000
    4      H      -0.0367900000    -0.0787070000     2.1514080000
    5      C       0.3060100000     1.8646930000    -0.5971920000
    6      S       0.0410100000     0.3620930000    -1.4714920000
    7      C       0.4565100000     2.7185930000     1.8299080000
    8      H       0.3826100000     2.2993930000     2.8520080000
    9      H      -0.3086900000     3.5178930000     1.7415080000
   10      H       1.4490100000     3.2078930000     1.7415080000
   11      C      -0.1226900000    -2.0067070000     0.0153080000
   12      H       0.9409100000    -2.0069070000    -0.1720920000
   13      H      -0.2648900000    -2.7105070000    -0.7914920000
   14      H       0.0418100000    -2.5256070000     0.9480080000
   15      H       0.4708100000     2.7993930000    -1.1462920000
 ----------------------------------------------------------------

   10    -629.4246615336      7.07e-07  Convergence criterion met
 Total energy in the final basis set =     -629.4246615336
        RIMP2         total energy =      -630.5997899444 a.u.

                    Orbital Energies (a.u.)
 --------------------------------------------------------------

 Alpha MOs
 -- Occupied --
-91.9773 -11.2861 -11.2492 -11.2470 -11.2265 -11.2236 -11.2229  -8.9772
 -6.6583  -6.6577  -6.6571  -1.1609  -1.0566  -0.9970  -0.9422  -0.8824
 -0.7444  -0.7187  -0.6477  -0.5897  -0.5771  -0.5687  -0.5513  -0.5467
 -0.5071  -0.4939  -0.4663  -0.4561  -0.3390  -0.2888

          Ground-State Mulliken Net Atomic Charges

     Atom                 Charge (a.u.)
  ----------------------------------------
      1 C                     0.066845
      2 C                    -0.319220
      3 C                     0.056361
      4 H                     0.177304
      5 C                    -0.280217
      6 S                    -0.003991
      7 C                    -0.273275
      8 H                     0.101273
      9 H                     0.107374
     10 H                     0.107437
     11 C                    -0.378306
     12 H                     0.145500
     13 H                     0.160336
     14 H                     0.139979
     15 H                     0.192602
  ----------------------------------------
  Sum of atomic charges =     0.000000

                    Cartesian Multipole Moments
 -----------------------------------------------------------------
    Charge (ESU x 10^10)
                -0.0000
    Dipole Moment (Debye)
         X       0.9134      Y      -0.7533      Z       1.3008
       Tot       1.7589
    Quadrupole Moments (Debye-Ang)
        XX     -54.3078     XY       0.0501     YY     -41.9383
        XZ       0.2027     YZ       0.7287     ZZ     -48.6383

 Total job time:  156.10s(wall), 154.95s(cpu)
        *  Thank you very much for using Q-Chem.  Have a nice day.  *
