 Q-Chem 5.4, Q-Chem, Inc., Pleasanton, CA (2021)
 Q-Chem 5.4.0 for Intel X86 EM64T Linux

User input:
--------------------------------------------------------------
$molecule
0 1
C	-0.227159	-0.535395	0.015607
C	0.068241	0.276105	1.115007
C	0.541541	1.576505	0.792307
H	-0.057859	-0.070395	2.151707
C	0.617041	1.783905	-0.596893
S	0.095141	0.350205	-1.471193
C	0.913641	2.598705	1.830207
H	0.768041	2.198705	2.852307
H	0.298841	3.518705	1.741807
H	1.976041	2.908305	1.741807
C	-0.227159	-1.976095	0.015607
H	-1.307159	-1.976295	0.015507
H	-0.227259	-2.679895	0.834807
H	-0.227159	-2.494995	-0.931493
H	0.941741	2.675905	-1.145993
$end

$rem
JOBTYPE		SP
EXCHANGE	HF
CORRELATION	pRIMP2
BASIS		cc-pvtz
METHOD		rimp2
AUX_BASIS	rimp2-cc-pvtz
SOLVENT_METHOD	PCM
PURECART	11111
SYMMETRY	false
MEM_TOTAL	110000
SCF_CONVERGENCE = 6
THRESH=10
$end

$solvent
dielectric 4.90
$end
--------------------------------------------------------------

   10    -629.4120929648      6.43e-07  Convergence criterion met
 Total energy in the final basis set =     -629.4120929648
        RIMP2         total energy =      -630.5902818532 a.u.
 Total job time:  157.79s(wall), 155.18s(cpu)
        *  Thank you very much for using Q-Chem.  Have a nice day.  *
 Q-Chem 5.4, Q-Chem, Inc., Pleasanton, CA (2021)
 Q-Chem 5.4.0 for Intel X86 EM64T Linux

User input:
--------------------------------------------------------------
$molecule
0 1
C	-0.227159	-0.535395	0.015607
C	0.068241	0.276105	1.115007
C	0.541541	1.576505	0.792307
H	-0.057859	-0.070395	2.151707
C	0.617041	1.783905	-0.596893
S	0.095141	0.350205	-1.471193
C	0.913641	2.598705	1.830207
H	0.768041	2.198705	2.852307
H	0.298841	3.518705	1.741807
H	1.976041	2.908305	1.741807
C	-0.227159	-1.976095	0.015607
H	-1.307159	-1.976295	0.015507
H	-0.227259	-2.679895	0.834807
H	-0.227159	-2.494995	-0.931493
H	0.941741	2.675905	-1.145993
$end

$rem
JOBTYPE		SP
EXCHANGE	HF
CORRELATION	pRIMP2
BASIS		cc-pvtz
METHOD		rimp2
AUX_BASIS	rimp2-cc-pvtz
SOLVENT_METHOD	PCM
PURECART	11111
SYMMETRY	false
MEM_TOTAL	110000
SCF_CONVERGENCE = 6
THRESH=10
$end

$solvent
dielectric 4.90
$end
--------------------------------------------------------------

             Standard Nuclear Orientation (Angstroms)
    I     Atom           X                Y                Z
 ----------------------------------------------------------------
    1      C      -0.2271590000    -0.5353950000     0.0156070000
    2      C       0.0682410000     0.2761050000     1.1150070000
    3      C       0.5415410000     1.5765050000     0.7923070000
    4      H      -0.0578590000    -0.0703950000     2.1517070000
    5      C       0.6170410000     1.7839050000    -0.5968930000
    6      S       0.0951410000     0.3502050000    -1.4711930000
    7      C       0.9136410000     2.5987050000     1.8302070000
    8      H       0.7680410000     2.1987050000     2.8523070000
    9      H       0.2988410000     3.5187050000     1.7418070000
   10      H       1.9760410000     2.9083050000     1.7418070000
   11      C      -0.2271590000    -1.9760950000     0.0156070000
   12      H      -1.3071590000    -1.9762950000     0.0155070000
   13      H      -0.2272590000    -2.6798950000     0.8348070000
   14      H      -0.2271590000    -2.4949950000    -0.9314930000
   15      H       0.9417410000     2.6759050000    -1.1459930000
 ----------------------------------------------------------------

   10    -629.4120929648      6.43e-07  Convergence criterion met
 Total energy in the final basis set =     -629.4120929648
        RIMP2         total energy =      -630.5902818532 a.u.

                    Orbital Energies (a.u.)
 --------------------------------------------------------------

 Alpha MOs
 -- Occupied --
-91.9780 -11.2808 -11.2515 -11.2470 -11.2264 -11.2251 -11.2188  -8.9779
 -6.6589  -6.6583  -6.6577  -1.1605  -1.0553  -0.9967  -0.9426  -0.8825
 -0.7442  -0.7193  -0.6481  -0.5856  -0.5732  -0.5683  -0.5545  -0.5456
 -0.5097  -0.4943  -0.4587  -0.4566  -0.3380  -0.2873

          Ground-State Mulliken Net Atomic Charges

     Atom                 Charge (a.u.)
  ----------------------------------------
      1 C                     0.042526
      2 C                    -0.295869
      3 C                     0.051080
      4 H                     0.176572
      5 C                    -0.275808
      6 S                     0.004407
      7 C                    -0.271931
      8 H                     0.101398
      9 H                     0.107127
     10 H                     0.106857
     11 C                    -0.378654
     12 H                     0.136650
     13 H                     0.163521
     14 H                     0.139118
     15 H                     0.193006
  ----------------------------------------
  Sum of atomic charges =     0.000000

                    Cartesian Multipole Moments
 -----------------------------------------------------------------
    Charge (ESU x 10^10)
                -0.0000
    Dipole Moment (Debye)
         X      -0.3108      Y      -0.5808      Z       1.4207
       Tot       1.5660
    Quadrupole Moments (Debye-Ang)
        XX     -53.1585     XY       4.3851     YY     -43.0088
        XZ       0.0502     YZ       0.1424     ZZ     -48.4533

 Total job time:  157.65s(wall), 156.10s(cpu)
        *  Thank you very much for using Q-Chem.  Have a nice day.  *
