 Q-Chem 5.4, Q-Chem, Inc., Pleasanton, CA (2021)
 Q-Chem 5.4.0 for Intel X86 EM64T Linux

User input:
--------------------------------------------------------------
$molecule
0 1
C	-0.121159	-0.566010	0.018590
C	0.028841	0.284490	1.117990
C	0.269141	1.647390	0.795290
H	-0.035259	-0.078710	2.154690
C	0.307541	1.864690	-0.593910
S	0.042541	0.362090	-1.468210
C	0.458041	2.718590	1.833190
H	0.384141	2.299390	2.855290
H	-0.307159	3.517890	1.744790
H	1.450541	3.207890	1.744790
C	-0.121159	-2.006710	0.018590
H	0.706241	-2.006410	-0.675510
H	0.405341	-2.710510	0.646190
H	-0.729959	-2.525610	-0.706910
H	0.472341	2.799390	-1.143010
$end

$rem
JOBTYPE		SP
EXCHANGE	HF
CORRELATION	pRIMP2
BASIS		cc-pvtz
METHOD		rimp2
AUX_BASIS	rimp2-cc-pvtz
SOLVENT_METHOD	PCM
PURECART	11111
SYMMETRY	false
MEM_TOTAL	110000
SCF_CONVERGENCE = 6
THRESH=10
$end

$solvent
dielectric 4.90
$end
--------------------------------------------------------------

   10    -629.4214627550      6.70e-07  Convergence criterion met
 Total energy in the final basis set =     -629.4214627550
        RIMP2         total energy =      -630.5975203808 a.u.
 Total job time:  158.53s(wall), 155.67s(cpu)
        *  Thank you very much for using Q-Chem.  Have a nice day.  *
 Q-Chem 5.4, Q-Chem, Inc., Pleasanton, CA (2021)
 Q-Chem 5.4.0 for Intel X86 EM64T Linux

User input:
--------------------------------------------------------------
$molecule
0 1
C	-0.121159	-0.566010	0.018590
C	0.028841	0.284490	1.117990
C	0.269141	1.647390	0.795290
H	-0.035259	-0.078710	2.154690
C	0.307541	1.864690	-0.593910
S	0.042541	0.362090	-1.468210
C	0.458041	2.718590	1.833190
H	0.384141	2.299390	2.855290
H	-0.307159	3.517890	1.744790
H	1.450541	3.207890	1.744790
C	-0.121159	-2.006710	0.018590
H	0.706241	-2.006410	-0.675510
H	0.405341	-2.710510	0.646190
H	-0.729959	-2.525610	-0.706910
H	0.472341	2.799390	-1.143010
$end

$rem
JOBTYPE		SP
EXCHANGE	HF
CORRELATION	pRIMP2
BASIS		cc-pvtz
METHOD		rimp2
AUX_BASIS	rimp2-cc-pvtz
SOLVENT_METHOD	PCM
PURECART	11111
SYMMETRY	false
MEM_TOTAL	110000
SCF_CONVERGENCE = 6
THRESH=10
$end

$solvent
dielectric 4.90
$end
--------------------------------------------------------------

             Standard Nuclear Orientation (Angstroms)
    I     Atom           X                Y                Z
 ----------------------------------------------------------------
    1      C      -0.1211590000    -0.5660100000     0.0185900000
    2      C       0.0288410000     0.2844900000     1.1179900000
    3      C       0.2691410000     1.6473900000     0.7952900000
    4      H      -0.0352590000    -0.0787100000     2.1546900000
    5      C       0.3075410000     1.8646900000    -0.5939100000
    6      S       0.0425410000     0.3620900000    -1.4682100000
    7      C       0.4580410000     2.7185900000     1.8331900000
    8      H       0.3841410000     2.2993900000     2.8552900000
    9      H      -0.3071590000     3.5178900000     1.7447900000
   10      H       1.4505410000     3.2078900000     1.7447900000
   11      C      -0.1211590000    -2.0067100000     0.0185900000
   12      H       0.7062410000    -2.0064100000    -0.6755100000
   13      H       0.4053410000    -2.7105100000     0.6461900000
   14      H      -0.7299590000    -2.5256100000    -0.7069100000
   15      H       0.4723410000     2.7993900000    -1.1430100000
 ----------------------------------------------------------------

   10    -629.4214627550      6.70e-07  Convergence criterion met
 Total energy in the final basis set =     -629.4214627550
        RIMP2         total energy =      -630.5975203808 a.u.

                    Orbital Energies (a.u.)
 --------------------------------------------------------------

 Alpha MOs
 -- Occupied --
-91.9782 -11.2810 -11.2534 -11.2467 -11.2265 -11.2261 -11.2193  -8.9782
 -6.6592  -6.6587  -6.6580  -1.1611  -1.0561  -0.9956  -0.9448  -0.8816
 -0.7462  -0.7184  -0.6491  -0.5889  -0.5765  -0.5649  -0.5530  -0.5476
 -0.5082  -0.4906  -0.4651  -0.4525  -0.3395  -0.2938

          Ground-State Mulliken Net Atomic Charges

     Atom                 Charge (a.u.)
  ----------------------------------------
      1 C                     0.061584
      2 C                    -0.306244
      3 C                     0.053583
      4 H                     0.179999
      5 C                    -0.268474
      6 S                    -0.003494
      7 C                    -0.272757
      8 H                     0.101457
      9 H                     0.107378
     10 H                     0.107116
     11 C                    -0.375208
     12 H                     0.129699
     13 H                     0.158703
     14 H                     0.132698
     15 H                     0.193962
  ----------------------------------------
  Sum of atomic charges =     0.000000

                    Cartesian Multipole Moments
 -----------------------------------------------------------------
    Charge (ESU x 10^10)
                -0.0000
    Dipole Moment (Debye)
         X       0.7557      Y      -0.4033      Z       1.0063
       Tot       1.3215
    Quadrupole Moments (Debye-Ang)
        XX     -53.9867     XY       0.2990     YY     -42.1579
        XZ       0.3868     YZ       1.0798     ZZ     -48.7154

 Total job time:  156.17s(wall), 154.78s(cpu)
        *  Thank you very much for using Q-Chem.  Have a nice day.  *
