 Q-Chem 5.4, Q-Chem, Inc., Pleasanton, CA (2021)
 Q-Chem 5.4.0 for Intel X86 EM64T Linux

User input:
--------------------------------------------------------------
$molecule
0 1
C	-0.054467	-0.573727	0.016441
C	0.020833	0.286573	1.115841
C	0.141433	1.665273	0.793141
H	-0.011267	-0.080827	2.152541
C	0.160733	1.885073	-0.596059
S	0.027733	0.365073	-1.470359
C	0.236333	2.748873	1.831041
H	0.199233	2.324773	2.853141
H	-0.595667	3.478373	1.742641
H	1.182333	3.322873	1.742641
C	-0.054467	-2.014427	0.016441
H	-1.118067	-2.014627	-0.171259
H	-0.196767	-2.718227	0.823141
H	0.110033	-2.533327	-0.916259
H	0.243433	2.830673	-1.145159
$end

$rem
JOBTYPE		SP
EXCHANGE	HF
CORRELATION	pRIMP2
BASIS		cc-pvtz
METHOD		rimp2
AUX_BASIS	rimp2-cc-pvtz
SOLVENT_METHOD	PCM
PURECART	11111
SYMMETRY	false
MEM_TOTAL	110000
SCF_CONVERGENCE = 6
THRESH=10
$end

$solvent
dielectric 4.90
$end
--------------------------------------------------------------

             Standard Nuclear Orientation (Angstroms)
    I     Atom           X                Y                Z
 ----------------------------------------------------------------
    1      C      -0.0544670000    -0.5737270000     0.0164410000
    2      C       0.0208330000     0.2865730000     1.1158410000
    3      C       0.1414330000     1.6652730000     0.7931410000
    4      H      -0.0112670000    -0.0808270000     2.1525410000
    5      C       0.1607330000     1.8850730000    -0.5960590000
    6      S       0.0277330000     0.3650730000    -1.4703590000
    7      C       0.2363330000     2.7488730000     1.8310410000
    8      H       0.1992330000     2.3247730000     2.8531410000
    9      H      -0.5956670000     3.4783730000     1.7426410000
   10      H       1.1823330000     3.3228730000     1.7426410000
   11      C      -0.0544670000    -2.0144270000     0.0164410000
   12      H      -1.1180670000    -2.0146270000    -0.1712590000
   13      H      -0.1967670000    -2.7182270000     0.8231410000
   14      H       0.1100330000    -2.5333270000    -0.9162590000
   15      H       0.2434330000     2.8306730000    -1.1451590000
 ----------------------------------------------------------------

   10    -629.4230165283      7.01e-07  Convergence criterion met
 Total energy in the final basis set =     -629.4230165283
        RIMP2         total energy =      -630.5982235940 a.u.

                    Orbital Energies (a.u.)
 --------------------------------------------------------------

 Alpha MOs
 -- Occupied --
-91.9790 -11.2849 -11.2492 -11.2467 -11.2262 -11.2224 -11.2218  -8.9788
 -6.6598  -6.6592  -6.6586  -1.1601  -1.0562  -0.9967  -0.9432  -0.8823
 -0.7443  -0.7182  -0.6494  -0.5869  -0.5746  -0.5674  -0.5532  -0.5469
 -0.5076  -0.4944  -0.4648  -0.4571  -0.3387  -0.2885

          Ground-State Mulliken Net Atomic Charges

     Atom                 Charge (a.u.)
  ----------------------------------------
      1 C                     0.059470
      2 C                    -0.300484
      3 C                     0.047129
      4 H                     0.177482
      5 C                    -0.278980
      6 S                    -0.000374
      7 C                    -0.274064
      8 H                     0.101339
      9 H                     0.107249
     10 H                     0.107224
     11 C                    -0.383397
     12 H                     0.139800
     13 H                     0.165439
     14 H                     0.138584
     15 H                     0.193583
  ----------------------------------------
  Sum of atomic charges =     0.000000

                    Cartesian Multipole Moments
 -----------------------------------------------------------------
    Charge (ESU x 10^10)
                -0.0000
    Dipole Moment (Debye)
         X      -0.6315      Y      -0.7108      Z       1.2586
       Tot       1.5773
    Quadrupole Moments (Debye-Ang)
        XX     -54.2584     XY       2.3284     YY     -41.7502
        XZ      -0.1168     YZ       0.4499     ZZ     -48.5822

 Total job time:  161.04s(wall), 159.55s(cpu)
        *  Thank you very much for using Q-Chem.  Have a nice day.  *
