 Q-Chem 5.4, Q-Chem, Inc., Pleasanton, CA (2021)
 Q-Chem 5.4.0 for Intel X86 EM64T Linux

User input:
--------------------------------------------------------------
$molecule
0 1
C	-0.514765	-0.333974	0.015309
C	0.146835	0.221126	1.114709
C	1.206935	1.110626	0.792009
H	-0.135665	-0.015974	2.151409
C	1.376035	1.252426	-0.597191
S	0.207135	0.271726	-1.471491
C	2.040235	1.809826	1.829909
H	1.714135	1.536226	2.852009
H	1.967835	2.914026	1.741509
H	3.115035	1.546726	1.741509
C	-0.514765	-1.774674	0.015309
H	-1.578365	-1.774374	-0.172391
H	-0.372465	-2.478474	-0.791391
H	-0.679265	-2.293574	0.948009
H	2.103135	1.862626	-1.146291
$end

$rem
JOBTYPE		SP
EXCHANGE	HF
CORRELATION	pRIMP2
BASIS		cc-pvtz
METHOD		rimp2
AUX_BASIS	rimp2-cc-pvtz
SOLVENT_METHOD	PCM
PURECART	11111
SYMMETRY	false
MEM_TOTAL	110000
SCF_CONVERGENCE = 6
THRESH=10
$end

$solvent
dielectric 4.90
$end
--------------------------------------------------------------

             Standard Nuclear Orientation (Angstroms)
    I     Atom           X                Y                Z
 ----------------------------------------------------------------
    1      C      -0.5147650000    -0.3339740000     0.0153090000
    2      C       0.1468350000     0.2211260000     1.1147090000
    3      C       1.2069350000     1.1106260000     0.7920090000
    4      H      -0.1356650000    -0.0159740000     2.1514090000
    5      C       1.3760350000     1.2524260000    -0.5971910000
    6      S       0.2071350000     0.2717260000    -1.4714910000
    7      C       2.0402350000     1.8098260000     1.8299090000
    8      H       1.7141350000     1.5362260000     2.8520090000
    9      H       1.9678350000     2.9140260000     1.7415090000
   10      H       3.1150350000     1.5467260000     1.7415090000
   11      C      -0.5147650000    -1.7746740000     0.0153090000
   12      H      -1.5783650000    -1.7743740000    -0.1723910000
   13      H      -0.3724650000    -2.4784740000    -0.7913910000
   14      H      -0.6792650000    -2.2935740000     0.9480090000
   15      H       2.1031350000     1.8626260000    -1.1462910000
 ----------------------------------------------------------------

   11    -629.3603469609      4.43e-07  Convergence criterion met
 Total energy in the final basis set =     -629.3603469609
        RIMP2         total energy =      -630.5499516150 a.u.

                    Orbital Energies (a.u.)
 --------------------------------------------------------------

 Alpha MOs
 -- Occupied --
-91.9743 -11.2699 -11.2559 -11.2481 -11.2413 -11.2277 -11.2074  -8.9749
 -6.6558  -6.6550  -6.6547  -1.1668  -1.0538  -0.9963  -0.9405  -0.8820
 -0.7480  -0.7254  -0.6413  -0.5857  -0.5769  -0.5709  -0.5509  -0.5432
 -0.5159  -0.4906  -0.4571  -0.4327  -0.3361  -0.2847

          Ground-State Mulliken Net Atomic Charges

     Atom                 Charge (a.u.)
  ----------------------------------------
      1 C                    -0.055037
      2 C                    -0.188008
      3 C                     0.016252
      4 H                     0.183333
      5 C                    -0.220358
      6 S                     0.005091
      7 C                    -0.269553
      8 H                     0.101499
      9 H                     0.106762
     10 H                     0.104904
     11 C                    -0.389552
     12 H                     0.124574
     13 H                     0.156536
     14 H                     0.128173
     15 H                     0.195385
  ----------------------------------------
  Sum of atomic charges =     0.000000

                    Cartesian Multipole Moments
 -----------------------------------------------------------------
    Charge (ESU x 10^10)
                -0.0000
    Dipole Moment (Debye)
         X       1.0854      Y      -0.0174      Z       1.5406
       Tot       1.8846
    Quadrupole Moments (Debye-Ang)
        XX     -49.1702     XY       5.6591     YY     -48.2260
        XZ      -0.1882     YZ       0.3861     ZZ     -47.8854

 Total job time:  172.00s(wall), 168.79s(cpu)
        *  Thank you very much for using Q-Chem.  Have a nice day.  *
