 Q-Chem 5.4, Q-Chem, Inc., Pleasanton, CA (2021)
 Q-Chem 5.4.0 for Intel X86 EM64T Linux

User input:
--------------------------------------------------------------
$molecule
0 1
C	-0.282333	-0.512746	0.012833
C	0.082667	0.269954	1.112233
C	0.667567	1.524154	0.789533
H	-0.073233	-0.064346	2.148933
C	0.760867	1.724154	-0.599667
S	0.115967	0.341354	-1.473967
C	1.127267	2.509954	1.827433
H	0.947367	2.124254	2.849533
H	0.594967	3.480154	1.739033
H	2.212567	2.725854	1.739033
C	-0.282333	-1.953446	0.012833
H	-1.297233	-1.953146	0.382133
H	-0.562433	-2.657246	-0.756967
H	0.041567	-2.472346	0.902833
H	1.161967	2.584454	-1.148767
$end

$rem
JOBTYPE		SP
EXCHANGE	HF
CORRELATION	pRIMP2
BASIS		cc-pvtz
METHOD		rimp2
AUX_BASIS	rimp2-cc-pvtz
SOLVENT_METHOD	PCM
PURECART	11111
SYMMETRY	false
MEM_TOTAL	110000
SCF_CONVERGENCE = 6
THRESH=10
$end

$solvent
dielectric 4.90
$end
--------------------------------------------------------------

             Standard Nuclear Orientation (Angstroms)
    I     Atom           X                Y                Z
 ----------------------------------------------------------------
    1      C      -0.2823330000    -0.5127460000     0.0128330000
    2      C       0.0826670000     0.2699540000     1.1122330000
    3      C       0.6675670000     1.5241540000     0.7895330000
    4      H      -0.0732330000    -0.0643460000     2.1489330000
    5      C       0.7608670000     1.7241540000    -0.5996670000
    6      S       0.1159670000     0.3413540000    -1.4739670000
    7      C       1.1272670000     2.5099540000     1.8274330000
    8      H       0.9473670000     2.1242540000     2.8495330000
    9      H       0.5949670000     3.4801540000     1.7390330000
   10      H       2.2125670000     2.7258540000     1.7390330000
   11      C      -0.2823330000    -1.9534460000     0.0128330000
   12      H      -1.2972330000    -1.9531460000     0.3821330000
   13      H      -0.5624330000    -2.6572460000    -0.7569670000
   14      H       0.0415670000    -2.4723460000     0.9028330000
   15      H       1.1619670000     2.5844540000    -1.1487670000
 ----------------------------------------------------------------

   10    -629.4079115853      5.88e-07  Convergence criterion met
 Total energy in the final basis set =     -629.4079115853
        RIMP2         total energy =      -630.5881414901 a.u.

                    Orbital Energies (a.u.)
 --------------------------------------------------------------

 Alpha MOs
 -- Occupied --
-91.9756 -11.2787 -11.2533 -11.2475 -11.2290 -11.2269 -11.2172  -8.9757
 -6.6566  -6.6560  -6.6554  -1.1611  -1.0548  -0.9976  -0.9405  -0.8832
 -0.7434  -0.7208  -0.6459  -0.5882  -0.5753  -0.5688  -0.5554  -0.5440
 -0.5109  -0.4937  -0.4599  -0.4479  -0.3373  -0.2885

          Ground-State Mulliken Net Atomic Charges

     Atom                 Charge (a.u.)
  ----------------------------------------
      1 C                     0.045295
      2 C                    -0.301548
      3 C                     0.052403
      4 H                     0.175554
      5 C                    -0.266006
      6 S                     0.002868
      7 C                    -0.271368
      8 H                     0.101336
      9 H                     0.107134
     10 H                     0.106953
     11 C                    -0.383017
     12 H                     0.136064
     13 H                     0.160056
     14 H                     0.143024
     15 H                     0.191252
  ----------------------------------------
  Sum of atomic charges =     0.000000

                    Cartesian Multipole Moments
 -----------------------------------------------------------------
    Charge (ESU x 10^10)
                -0.0000
    Dipole Moment (Debye)
         X      -0.1195      Y      -0.4995      Z       1.7281
       Tot       1.8028
    Quadrupole Moments (Debye-Ang)
        XX     -52.4951     XY       4.8782     YY     -43.7327
        XZ       0.2781     YZ      -0.0526     ZZ     -48.4949

 Total job time:  157.09s(wall), 155.70s(cpu)
        *  Thank you very much for using Q-Chem.  Have a nice day.  *
