 Q-Chem 5.4, Q-Chem, Inc., Pleasanton, CA (2021)
 Q-Chem 5.4.0 for Intel X86 EM64T Linux

User input:
--------------------------------------------------------------
$molecule
0 1
C	-0.582592	-0.237129	0.015309
C	0.165308	0.194671	1.114709
C	1.363808	0.886571	0.792009
H	-0.154092	0.010271	2.151409
C	1.554908	0.996871	-0.597191
S	0.233608	0.234071	-1.471491
C	2.305908	1.430471	1.829909
H	1.937208	1.217571	2.852009
H	2.426308	2.530371	1.741509
H	3.318708	0.984671	1.741509
C	-0.582592	-1.677829	0.015309
H	-1.646192	-1.677529	-0.172391
H	-0.440292	-2.381629	-0.791391
H	-0.747092	-2.196729	0.948009
H	2.377008	1.471471	-1.146291
$end

$rem
JOBTYPE		SP
EXCHANGE	HF
CORRELATION	pRIMP2
BASIS		cc-pvtz
METHOD		rimp2
AUX_BASIS	rimp2-cc-pvtz
SOLVENT_METHOD	PCM
PURECART	11111
SYMMETRY	false
MEM_TOTAL	110000
SCF_CONVERGENCE = 6
THRESH=10
$end

$solvent
dielectric 4.90
$end
--------------------------------------------------------------

             Standard Nuclear Orientation (Angstroms)
    I     Atom           X                Y                Z
 ----------------------------------------------------------------
    1      C      -0.5825920000    -0.2371290000     0.0153090000
    2      C       0.1653080000     0.1946710000     1.1147090000
    3      C       1.3638080000     0.8865710000     0.7920090000
    4      H      -0.1540920000     0.0102710000     2.1514090000
    5      C       1.5549080000     0.9968710000    -0.5971910000
    6      S       0.2336080000     0.2340710000    -1.4714910000
    7      C       2.3059080000     1.4304710000     1.8299090000
    8      H       1.9372080000     1.2175710000     2.8520090000
    9      H       2.4263080000     2.5303710000     1.7415090000
   10      H       3.3187080000     0.9846710000     1.7415090000
   11      C      -0.5825920000    -1.6778290000     0.0153090000
   12      H      -1.6461920000    -1.6775290000    -0.1723910000
   13      H      -0.4402920000    -2.3816290000    -0.7913910000
   14      H      -0.7470920000    -2.1967290000     0.9480090000
   15      H       2.3770080000     1.4714710000    -1.1462910000
 ----------------------------------------------------------------

   11    -629.3346728861      6.79e-07  Convergence criterion met
 Total energy in the final basis set =     -629.3346728861
        RIMP2         total energy =      -630.5275576528 a.u.

                    Orbital Energies (a.u.)
 --------------------------------------------------------------

 Alpha MOs
 -- Occupied --
-91.9735 -11.2804 -11.2510 -11.2485 -11.2411 -11.2285 -11.2036  -8.9743
 -6.6552  -6.6543  -6.6540  -1.1714  -1.0545  -0.9973  -0.9394  -0.8814
 -0.7507  -0.7296  -0.6403  -0.5875  -0.5779  -0.5703  -0.5508  -0.5425
 -0.5180  -0.4903  -0.4575  -0.4208  -0.3349  -0.2835

          Ground-State Mulliken Net Atomic Charges

     Atom                 Charge (a.u.)
  ----------------------------------------
      1 C                    -0.109618
      2 C                    -0.122137
      3 C                    -0.014319
      4 H                     0.186680
      5 C                    -0.187676
      6 S                     0.010467
      7 C                    -0.268956
      8 H                     0.101788
      9 H                     0.106404
     10 H                     0.104032
     11 C                    -0.400083
     12 H                     0.124095
     13 H                     0.149570
     14 H                     0.122423
     15 H                     0.197329
  ----------------------------------------
  Sum of atomic charges =     0.000000

                    Cartesian Multipole Moments
 -----------------------------------------------------------------
    Charge (ESU x 10^10)
                -0.0000
    Dipole Moment (Debye)
         X       1.8479      Y       0.0741      Z       1.6396
       Tot       2.4716
    Quadrupole Moments (Debye-Ang)
        XX     -47.8922     XY       5.1934     YY     -50.1189
        XZ      -0.3972     YZ       0.3634     ZZ     -47.4787

 Total job time:  175.93s(wall), 174.65s(cpu)
        *  Thank you very much for using Q-Chem.  Have a nice day.  *
