 Q-Chem 5.4, Q-Chem, Inc., Pleasanton, CA (2021)
 Q-Chem 5.4.0 for Intel X86 EM64T Linux

User input:
--------------------------------------------------------------
$molecule
0 1
C	-0.290609	-0.512744	0.012108
C	0.074391	0.269956	1.111508
C	0.659291	1.524156	0.788808
H	-0.081509	-0.064344	2.148208
C	0.752591	1.724156	-0.600392
S	0.107691	0.341356	-1.474692
C	1.118991	2.509956	1.826708
H	0.939091	2.124256	2.848808
H	0.586691	3.480156	1.738308
H	2.204291	2.725856	1.738308
C	-0.290609	-1.953444	0.012108
H	0.644591	-1.953644	0.552208
H	0.118991	-2.657244	-0.697292
H	-0.764209	-2.472344	0.832308
H	1.153691	2.584456	-1.149492
$end

$rem
JOBTYPE		SP
EXCHANGE	HF
CORRELATION	pRIMP2
BASIS		cc-pvtz
METHOD		rimp2
AUX_BASIS	rimp2-cc-pvtz
SOLVENT_METHOD	PCM
PURECART	11111
SYMMETRY	false
MEM_TOTAL	110000
SCF_CONVERGENCE = 6
THRESH=10
$end

$solvent
dielectric 4.90
$end
--------------------------------------------------------------

             Standard Nuclear Orientation (Angstroms)
    I     Atom           X                Y                Z
 ----------------------------------------------------------------
    1      C      -0.2906090000    -0.5127440000     0.0121080000
    2      C       0.0743910000     0.2699560000     1.1115080000
    3      C       0.6592910000     1.5241560000     0.7888080000
    4      H      -0.0815090000    -0.0643440000     2.1482080000
    5      C       0.7525910000     1.7241560000    -0.6003920000
    6      S       0.1076910000     0.3413560000    -1.4746920000
    7      C       1.1189910000     2.5099560000     1.8267080000
    8      H       0.9390910000     2.1242560000     2.8488080000
    9      H       0.5866910000     3.4801560000     1.7383080000
   10      H       2.2042910000     2.7258560000     1.7383080000
   11      C      -0.2906090000    -1.9534440000     0.0121080000
   12      H       0.6445910000    -1.9536440000     0.5522080000
   13      H       0.1189910000    -2.6572440000    -0.6972920000
   14      H      -0.7642090000    -2.4723440000     0.8323080000
   15      H       1.1536910000     2.5844560000    -1.1494920000
 ----------------------------------------------------------------

   10    -629.4101767197      6.02e-07  Convergence criterion met
 Total energy in the final basis set =     -629.4101767197
        RIMP2         total energy =      -630.5897588993 a.u.

                    Orbital Energies (a.u.)
 --------------------------------------------------------------

 Alpha MOs
 -- Occupied --
-91.9784 -11.2815 -11.2522 -11.2479 -11.2271 -11.2262 -11.2185  -8.9782
 -6.6592  -6.6586  -6.6580  -1.1628  -1.0557  -0.9983  -0.9387  -0.8829
 -0.7431  -0.7212  -0.6469  -0.5896  -0.5756  -0.5719  -0.5555  -0.5441
 -0.5098  -0.4836  -0.4658  -0.4543  -0.3369  -0.2896

          Ground-State Mulliken Net Atomic Charges

     Atom                 Charge (a.u.)
  ----------------------------------------
      1 C                     0.038718
      2 C                    -0.276655
      3 C                     0.041442
      4 H                     0.175126
      5 C                    -0.272538
      6 S                     0.003808
      7 C                    -0.270933
      8 H                     0.101434
      9 H                     0.107422
     10 H                     0.106427
     11 C                    -0.389823
     12 H                     0.150301
     13 H                     0.160784
     14 H                     0.132092
     15 H                     0.192395
  ----------------------------------------
  Sum of atomic charges =     0.000000

                    Cartesian Multipole Moments
 -----------------------------------------------------------------
    Charge (ESU x 10^10)
                -0.0000
    Dipole Moment (Debye)
         X       1.1434      Y      -0.5471      Z       1.7825
       Tot       2.1872
    Quadrupole Moments (Debye-Ang)
        XX     -53.1289     XY       2.0670     YY     -43.8186
        XZ      -0.1404     YZ      -0.3459     ZZ     -48.5125

 Total job time:  160.18s(wall), 157.91s(cpu)
        *  Thank you very much for using Q-Chem.  Have a nice day.  *
