 Q-Chem 5.4, Q-Chem, Inc., Pleasanton, CA (2021)
 Q-Chem 5.4.0 for Intel X86 EM64T Linux

User input:
--------------------------------------------------------------
$molecule
0 1
C	-0.001946	-0.576312	0.019521
C	-0.001946	0.287288	1.118921
C	-0.001846	1.671188	0.796221
H	-0.001946	-0.081512	2.155621
C	-0.001846	1.891888	-0.592979
S	-0.001946	0.366088	-1.467279
C	-0.001846	2.758988	1.834121
H	-0.001846	2.333288	2.856221
H	-0.894246	3.413288	1.745721
H	0.890554	3.413188	1.745721
C	-0.001946	-2.017012	0.019521
H	0.538154	-2.016712	-0.915679
H	0.707454	-2.720812	0.429121
H	-0.822146	-2.535912	-0.454079
H	-0.001846	2.841088	-1.142079
$end

$rem
JOBTYPE		SP
EXCHANGE	HF
CORRELATION	pRIMP2
BASIS		cc-pvtz
METHOD		rimp2
AUX_BASIS	rimp2-cc-pvtz
SOLVENT_METHOD	PCM
PURECART	11111
SYMMETRY	false
MEM_TOTAL	110000
SCF_CONVERGENCE = 6
THRESH=10
$end

$solvent
dielectric 4.90
$end
--------------------------------------------------------------

   10    -629.4215461005      5.88e-07  Convergence criterion met
 Total energy in the final basis set =     -629.4215461005
        RIMP2         total energy =      -630.5984574882 a.u.
 Total job time:  159.82s(wall), 156.82s(cpu)
        *  Thank you very much for using Q-Chem.  Have a nice day.  *
 Q-Chem 5.4, Q-Chem, Inc., Pleasanton, CA (2021)
 Q-Chem 5.4.0 for Intel X86 EM64T Linux

User input:
--------------------------------------------------------------
$molecule
0 1
C	-0.001946	-0.576312	0.019521
C	-0.001946	0.287288	1.118921
C	-0.001846	1.671188	0.796221
H	-0.001946	-0.081512	2.155621
C	-0.001846	1.891888	-0.592979
S	-0.001946	0.366088	-1.467279
C	-0.001846	2.758988	1.834121
H	-0.001846	2.333288	2.856221
H	-0.894246	3.413288	1.745721
H	0.890554	3.413188	1.745721
C	-0.001946	-2.017012	0.019521
H	0.538154	-2.016712	-0.915679
H	0.707454	-2.720812	0.429121
H	-0.822146	-2.535912	-0.454079
H	-0.001846	2.841088	-1.142079
$end

$rem
JOBTYPE		SP
EXCHANGE	HF
CORRELATION	pRIMP2
BASIS		cc-pvtz
METHOD		rimp2
AUX_BASIS	rimp2-cc-pvtz
SOLVENT_METHOD	PCM
PURECART	11111
SYMMETRY	false
MEM_TOTAL	110000
SCF_CONVERGENCE = 6
THRESH=10
$end

$solvent
dielectric 4.90
$end
--------------------------------------------------------------

             Standard Nuclear Orientation (Angstroms)
    I     Atom           X                Y                Z
 ----------------------------------------------------------------
    1      C      -0.0019460000    -0.5763120000     0.0195210000
    2      C      -0.0019460000     0.2872880000     1.1189210000
    3      C      -0.0018460000     1.6711880000     0.7962210000
    4      H      -0.0019460000    -0.0815120000     2.1556210000
    5      C      -0.0018460000     1.8918880000    -0.5929790000
    6      S      -0.0019460000     0.3660880000    -1.4672790000
    7      C      -0.0018460000     2.7589880000     1.8341210000
    8      H      -0.0018460000     2.3332880000     2.8562210000
    9      H      -0.8942460000     3.4132880000     1.7457210000
   10      H       0.8905540000     3.4131880000     1.7457210000
   11      C      -0.0019460000    -2.0170120000     0.0195210000
   12      H       0.5381540000    -2.0167120000    -0.9156790000
   13      H       0.7074540000    -2.7208120000     0.4291210000
   14      H      -0.8221460000    -2.5359120000    -0.4540790000
   15      H      -0.0018460000     2.8410880000    -1.1420790000
 ----------------------------------------------------------------

   10    -629.4215461005      5.88e-07  Convergence criterion met
 Total energy in the final basis set =     -629.4215461005
        RIMP2         total energy =      -630.5984574882 a.u.

                    Orbital Energies (a.u.)
 --------------------------------------------------------------

 Alpha MOs
 -- Occupied --
-91.9799 -11.2776 -11.2559 -11.2469 -11.2276 -11.2267 -11.2172  -8.9797
 -6.6607  -6.6602  -6.6595  -1.1608  -1.0554  -0.9955  -0.9459  -0.8817
 -0.7471  -0.7183  -0.6486  -0.5908  -0.5754  -0.5653  -0.5537  -0.5474
 -0.5085  -0.4877  -0.4650  -0.4482  -0.3390  -0.2994

          Ground-State Mulliken Net Atomic Charges

     Atom                 Charge (a.u.)
  ----------------------------------------
      1 C                     0.055396
      2 C                    -0.272902
      3 C                     0.040479
      4 H                     0.180610
      5 C                    -0.260313
      6 S                    -0.003194
      7 C                    -0.273520
      8 H                     0.101720
      9 H                     0.107100
     10 H                     0.106963
     11 C                    -0.373814
     12 H                     0.117388
     13 H                     0.153468
     14 H                     0.125794
     15 H                     0.194826
  ----------------------------------------
  Sum of atomic charges =     0.000000

                    Cartesian Multipole Moments
 -----------------------------------------------------------------
    Charge (ESU x 10^10)
                -0.0000
    Dipole Moment (Debye)
         X       0.3202      Y      -0.1413      Z       0.8929
       Tot       0.9591
    Quadrupole Moments (Debye-Ang)
        XX     -53.8701     XY      -0.8484     YY     -42.0336
        XZ       0.2709     YZ       1.3268     ZZ     -48.7938

 Total job time:  156.65s(wall), 155.15s(cpu)
        *  Thank you very much for using Q-Chem.  Have a nice day.  *
