 Q-Chem 5.4, Q-Chem, Inc., Pleasanton, CA (2021)
 Q-Chem 5.4.0 for Intel X86 EM64T Linux

User input:
--------------------------------------------------------------
$molecule
0 1
C	-0.520217	-0.333974	0.010180
C	0.141383	0.221126	1.109580
C	1.201483	1.110626	0.786880
H	-0.141117	-0.015974	2.146280
C	1.370583	1.252426	-0.602320
S	0.201683	0.271726	-1.476620
C	2.034783	1.809826	1.824780
H	1.708683	1.536226	2.846880
H	1.962383	2.914026	1.736380
H	3.109583	1.546726	1.736380
C	-0.520217	-1.774674	0.010180
H	-0.520317	-1.774374	1.090180
H	-1.339417	-2.478474	0.010080
H	0.426883	-2.293574	0.010180
H	2.097683	1.862626	-1.151420
$end

$rem
JOBTYPE		SP
EXCHANGE	HF
CORRELATION	pRIMP2
BASIS		cc-pvtz
METHOD		rimp2
AUX_BASIS	rimp2-cc-pvtz
SOLVENT_METHOD	PCM
PURECART	11111
SYMMETRY	false
MEM_TOTAL	110000
SCF_CONVERGENCE = 6
THRESH=10
$end

$solvent
dielectric 4.90
$end
--------------------------------------------------------------

             Standard Nuclear Orientation (Angstroms)
    I     Atom           X                Y                Z
 ----------------------------------------------------------------
    1      C      -0.5202170000    -0.3339740000     0.0101800000
    2      C       0.1413830000     0.2211260000     1.1095800000
    3      C       1.2014830000     1.1106260000     0.7868800000
    4      H      -0.1411170000    -0.0159740000     2.1462800000
    5      C       1.3705830000     1.2524260000    -0.6023200000
    6      S       0.2016830000     0.2717260000    -1.4766200000
    7      C       2.0347830000     1.8098260000     1.8247800000
    8      H       1.7086830000     1.5362260000     2.8468800000
    9      H       1.9623830000     2.9140260000     1.7363800000
   10      H       3.1095830000     1.5467260000     1.7363800000
   11      C      -0.5202170000    -1.7746740000     0.0101800000
   12      H      -0.5203170000    -1.7743740000     1.0901800000
   13      H      -1.3394170000    -2.4784740000     0.0100800000
   14      H       0.4268830000    -2.2935740000     0.0101800000
   15      H       2.0976830000     1.8626260000    -1.1514200000
 ----------------------------------------------------------------

   10    -629.3733785723      8.39e-07  Convergence criterion met
 Total energy in the final basis set =     -629.3733785723
        RIMP2         total energy =      -630.5615687400 a.u.

                    Orbital Energies (a.u.)
 --------------------------------------------------------------

 Alpha MOs
 -- Occupied --
-91.9730 -11.2747 -11.2558 -11.2488 -11.2471 -11.2289 -11.2093  -8.9737
 -6.6546  -6.6538  -6.6535  -1.1704  -1.0555  -1.0008  -0.9348  -0.8834
 -0.7458  -0.7317  -0.6437  -0.5929  -0.5825  -0.5671  -0.5551  -0.5426
 -0.5167  -0.4716  -0.4639  -0.4292  -0.3338  -0.3060

          Ground-State Mulliken Net Atomic Charges

     Atom                 Charge (a.u.)
  ----------------------------------------
      1 C                    -0.051210
      2 C                    -0.179696
      3 C                     0.007291
      4 H                     0.177826
      5 C                    -0.208472
      6 S                     0.005392
      7 C                    -0.268116
      8 H                     0.101561
      9 H                     0.106942
     10 H                     0.105537
     11 C                    -0.353000
     12 H                     0.109035
     13 H                     0.124409
     14 H                     0.126749
     15 H                     0.195752
  ----------------------------------------
  Sum of atomic charges =     0.000000

                    Cartesian Multipole Moments
 -----------------------------------------------------------------
    Charge (ESU x 10^10)
                -0.0000
    Dipole Moment (Debye)
         X       1.8775      Y       0.2420      Z       2.2648
       Tot       2.9518
    Quadrupole Moments (Debye-Ang)
        XX     -49.0382     XY       4.6706     YY     -48.3864
        XZ      -0.4215     YZ      -1.0177     ZZ     -48.3874

 Total job time:  161.84s(wall), 160.78s(cpu)
        *  Thank you very much for using Q-Chem.  Have a nice day.  *
