 Q-Chem 5.4, Q-Chem, Inc., Pleasanton, CA (2021)
 Q-Chem 5.4.0 for Intel X86 EM64T Linux

User input:
--------------------------------------------------------------
$molecule
0 1
C	-0.584123	-0.237129	0.011474
C	0.163777	0.194671	1.110874
C	1.362277	0.886571	0.788174
H	-0.155623	0.010271	2.147574
C	1.553377	0.996871	-0.601026
S	0.232077	0.234071	-1.475326
C	2.304377	1.430471	1.826074
H	1.935677	1.217571	2.848174
H	2.424777	2.530371	1.737674
H	3.317177	0.984671	1.737674
C	-0.584123	-1.677829	0.011474
H	-1.411523	-1.677529	0.705574
H	-1.110623	-2.381629	-0.616126
H	0.024677	-2.196729	0.736974
H	2.375477	1.471471	-1.150126
$end

$rem
JOBTYPE		SP
EXCHANGE	HF
CORRELATION	pRIMP2
BASIS		cc-pvtz
METHOD		rimp2
AUX_BASIS	rimp2-cc-pvtz
SOLVENT_METHOD	PCM
PURECART	11111
SYMMETRY	false
MEM_TOTAL	110000
SCF_CONVERGENCE = 6
THRESH=10
$end

$solvent
dielectric 4.90
$end
--------------------------------------------------------------

             Standard Nuclear Orientation (Angstroms)
    I     Atom           X                Y                Z
 ----------------------------------------------------------------
    1      C      -0.5841230000    -0.2371290000     0.0114740000
    2      C       0.1637770000     0.1946710000     1.1108740000
    3      C       1.3622770000     0.8865710000     0.7881740000
    4      H      -0.1556230000     0.0102710000     2.1475740000
    5      C       1.5533770000     0.9968710000    -0.6010260000
    6      S       0.2320770000     0.2340710000    -1.4753260000
    7      C       2.3043770000     1.4304710000     1.8260740000
    8      H       1.9356770000     1.2175710000     2.8481740000
    9      H       2.4247770000     2.5303710000     1.7376740000
   10      H       3.3171770000     0.9846710000     1.7376740000
   11      C      -0.5841230000    -1.6778290000     0.0114740000
   12      H      -1.4115230000    -1.6775290000     0.7055740000
   13      H      -1.1106230000    -2.3816290000    -0.6161260000
   14      H       0.0246770000    -2.1967290000     0.7369740000
   15      H       2.3754770000     1.4714710000    -1.1501260000
 ----------------------------------------------------------------

   11    -629.3460596737      5.38e-07  Convergence criterion met
 Total energy in the final basis set =     -629.3460596737
        RIMP2         total energy =      -630.5383943331 a.u.

                    Orbital Energies (a.u.)
 --------------------------------------------------------------

 Alpha MOs
 -- Occupied --
-91.9709 -11.2815 -11.2537 -11.2500 -11.2438 -11.2294 -11.2071  -8.9721
 -6.6529  -6.6518  -6.6517  -1.1729  -1.0557  -1.0001  -0.9357  -0.8833
 -0.7483  -0.7320  -0.6425  -0.5881  -0.5852  -0.5652  -0.5540  -0.5434
 -0.5185  -0.4876  -0.4604  -0.4145  -0.3356  -0.2933

          Ground-State Mulliken Net Atomic Charges

     Atom                 Charge (a.u.)
  ----------------------------------------
      1 C                    -0.094017
      2 C                    -0.136938
      3 C                    -0.017661
      4 H                     0.186278
      5 C                    -0.182426
      6 S                     0.013856
      7 C                    -0.267624
      8 H                     0.101990
      9 H                     0.106907
     10 H                     0.105137
     11 C                    -0.393846
     12 H                     0.115396
     13 H                     0.141450
     14 H                     0.125447
     15 H                     0.196051
  ----------------------------------------
  Sum of atomic charges =     0.000000

                    Cartesian Multipole Moments
 -----------------------------------------------------------------
    Charge (ESU x 10^10)
                -0.0000
    Dipole Moment (Debye)
         X       1.9722      Y       0.1057      Z       2.1154
       Tot       2.8941
    Quadrupole Moments (Debye-Ang)
        XX     -47.5617     XY       5.2908     YY     -50.0494
        XZ      -0.0357     YZ      -0.3741     ZZ     -47.8429

 Total job time:  175.40s(wall), 174.66s(cpu)
        *  Thank you very much for using Q-Chem.  Have a nice day.  *
