 Q-Chem 5.4, Q-Chem, Inc., Pleasanton, CA (2021)
 Q-Chem 5.4.0 for Intel X86 EM64T Linux

User input:
--------------------------------------------------------------
$molecule
0 1
C	-0.334421	-0.485419	0.013913
C	0.097379	0.262481	1.113313
C	0.789379	1.460981	0.790613
H	-0.087021	-0.056919	2.150013
C	0.899679	1.652081	-0.598587
S	0.136779	0.330681	-1.472887
C	1.333279	2.402981	1.828513
H	1.120479	2.034381	2.850613
H	0.887579	3.415781	1.740113
H	2.433279	2.523381	1.740113
C	-0.334421	-1.926119	0.013913
H	-1.349321	-1.926319	0.383213
H	-0.054321	-2.629919	0.783713
H	-0.658321	-2.445019	-0.876087
H	1.374379	2.474081	-1.147687
$end

$rem
JOBTYPE		SP
EXCHANGE	HF
CORRELATION	pRIMP2
BASIS		cc-pvtz
METHOD		rimp2
AUX_BASIS	rimp2-cc-pvtz
SOLVENT_METHOD	PCM
PURECART	11111
SYMMETRY	false
MEM_TOTAL	110000
SCF_CONVERGENCE = 6
THRESH=10
$end

$solvent
dielectric 4.90
$end
--------------------------------------------------------------

   10    -629.4008424381      5.64e-07  Convergence criterion met
 Total energy in the final basis set =     -629.4008424381
        RIMP2         total energy =      -630.5826958975 a.u.
 Total job time:  157.76s(wall), 155.00s(cpu)
        *  Thank you very much for using Q-Chem.  Have a nice day.  *
 Q-Chem 5.4, Q-Chem, Inc., Pleasanton, CA (2021)
 Q-Chem 5.4.0 for Intel X86 EM64T Linux

User input:
--------------------------------------------------------------
$molecule
0 1
C	-0.334421	-0.485419	0.013913
C	0.097379	0.262481	1.113313
C	0.789379	1.460981	0.790613
H	-0.087021	-0.056919	2.150013
C	0.899679	1.652081	-0.598587
S	0.136779	0.330681	-1.472887
C	1.333279	2.402981	1.828513
H	1.120479	2.034381	2.850613
H	0.887579	3.415781	1.740113
H	2.433279	2.523381	1.740113
C	-0.334421	-1.926119	0.013913
H	-1.349321	-1.926319	0.383213
H	-0.054321	-2.629919	0.783713
H	-0.658321	-2.445019	-0.876087
H	1.374379	2.474081	-1.147687
$end

$rem
JOBTYPE		SP
EXCHANGE	HF
CORRELATION	pRIMP2
BASIS		cc-pvtz
METHOD		rimp2
AUX_BASIS	rimp2-cc-pvtz
SOLVENT_METHOD	PCM
PURECART	11111
SYMMETRY	false
MEM_TOTAL	110000
SCF_CONVERGENCE = 6
THRESH=10
$end

$solvent
dielectric 4.90
$end
--------------------------------------------------------------

             Standard Nuclear Orientation (Angstroms)
    I     Atom           X                Y                Z
 ----------------------------------------------------------------
    1      C      -0.3344210000    -0.4854190000     0.0139130000
    2      C       0.0973790000     0.2624810000     1.1133130000
    3      C       0.7893790000     1.4609810000     0.7906130000
    4      H      -0.0870210000    -0.0569190000     2.1500130000
    5      C       0.8996790000     1.6520810000    -0.5985870000
    6      S       0.1367790000     0.3306810000    -1.4728870000
    7      C       1.3332790000     2.4029810000     1.8285130000
    8      H       1.1204790000     2.0343810000     2.8506130000
    9      H       0.8875790000     3.4157810000     1.7401130000
   10      H       2.4332790000     2.5233810000     1.7401130000
   11      C      -0.3344210000    -1.9261190000     0.0139130000
   12      H      -1.3493210000    -1.9263190000     0.3832130000
   13      H      -0.0543210000    -2.6299190000     0.7837130000
   14      H      -0.6583210000    -2.4450190000    -0.8760870000
   15      H       1.3743790000     2.4740810000    -1.1476870000
 ----------------------------------------------------------------

   10    -629.4008424381      5.64e-07  Convergence criterion met
 Total energy in the final basis set =     -629.4008424381
        RIMP2         total energy =      -630.5826958975 a.u.

                    Orbital Energies (a.u.)
 --------------------------------------------------------------

 Alpha MOs
 -- Occupied --
-91.9758 -11.2741 -11.2565 -11.2475 -11.2308 -11.2269 -11.2153  -8.9759
 -6.6569  -6.6562  -6.6557  -1.1617  -1.0543  -0.9971  -0.9411  -0.8830
 -0.7440  -0.7215  -0.6472  -0.5846  -0.5751  -0.5652  -0.5575  -0.5439
 -0.5121  -0.4931  -0.4595  -0.4462  -0.3373  -0.2886

          Ground-State Mulliken Net Atomic Charges

     Atom                 Charge (a.u.)
  ----------------------------------------
      1 C                     0.024408
      2 C                    -0.284356
      3 C                     0.047772
      4 H                     0.175683
      5 C                    -0.257469
      6 S                     0.005113
      7 C                    -0.270832
      8 H                     0.101405
      9 H                     0.107076
     10 H                     0.106553
     11 C                    -0.378508
     12 H                     0.133778
     13 H                     0.162045
     14 H                     0.135410
     15 H                     0.191921
  ----------------------------------------
  Sum of atomic charges =     0.000000

                    Cartesian Multipole Moments
 -----------------------------------------------------------------
    Charge (ESU x 10^10)
                -0.0000
    Dipole Moment (Debye)
         X       0.0798      Y      -0.3348      Z       1.7348
       Tot       1.7686
    Quadrupole Moments (Debye-Ang)
        XX     -51.8724     XY       5.2039     YY     -44.5555
        XZ       0.2220     YZ      -0.3637     ZZ     -48.3883

 Total job time:  156.07s(wall), 155.10s(cpu)
        *  Thank you very much for using Q-Chem.  Have a nice day.  *
