 Q-Chem 5.4, Q-Chem, Inc., Pleasanton, CA (2021)
 Q-Chem 5.4.0 for Intel X86 EM64T Linux

User input:
--------------------------------------------------------------
$molecule
0 1
C	-0.179488	-0.553189	0.012108
C	0.044012	0.281011	1.111508
C	0.402212	1.617711	0.788808
H	-0.051388	-0.075289	2.148208
C	0.459412	1.830811	-0.600392
S	0.064412	0.357111	-1.474692
C	0.683812	2.668411	1.826708
H	0.573612	2.257311	2.848808
H	-0.008788	3.531411	1.738308
H	1.715112	3.069411	1.738308
C	-0.179488	-1.993889	0.012108
H	0.755712	-1.994089	0.552208
H	0.230112	-2.697689	-0.697292
H	-0.653088	-2.512789	0.832308
H	0.705112	2.747711	-1.149492
$end

$rem
JOBTYPE		SP
EXCHANGE	HF
CORRELATION	pRIMP2
BASIS		cc-pvtz
METHOD		rimp2
AUX_BASIS	rimp2-cc-pvtz
SOLVENT_METHOD	PCM
PURECART	11111
SYMMETRY	false
MEM_TOTAL	110000
SCF_CONVERGENCE = 6
THRESH=10
$end

$solvent
dielectric 4.90
$end
--------------------------------------------------------------

             Standard Nuclear Orientation (Angstroms)
    I     Atom           X                Y                Z
 ----------------------------------------------------------------
    1      C      -0.1794880000    -0.5531890000     0.0121080000
    2      C       0.0440120000     0.2810110000     1.1115080000
    3      C       0.4022120000     1.6177110000     0.7888080000
    4      H      -0.0513880000    -0.0752890000     2.1482080000
    5      C       0.4594120000     1.8308110000    -0.6003920000
    6      S       0.0644120000     0.3571110000    -1.4746920000
    7      C       0.6838120000     2.6684110000     1.8267080000
    8      H       0.5736120000     2.2573110000     2.8488080000
    9      H      -0.0087880000     3.5314110000     1.7383080000
   10      H       1.7151120000     3.0694110000     1.7383080000
   11      C      -0.1794880000    -1.9938890000     0.0121080000
   12      H       0.7557120000    -1.9940890000     0.5522080000
   13      H       0.2301120000    -2.6976890000    -0.6972920000
   14      H      -0.6530880000    -2.5127890000     0.8323080000
   15      H       0.7051120000     2.7477110000    -1.1494920000
 ----------------------------------------------------------------

   10    -629.4192831537      6.39e-07  Convergence criterion met
 Total energy in the final basis set =     -629.4192831537
        RIMP2         total energy =      -630.5966796805 a.u.

                    Orbital Energies (a.u.)
 --------------------------------------------------------------

 Alpha MOs
 -- Occupied --
-91.9782 -11.2842 -11.2499 -11.2475 -11.2268 -11.2250 -11.2201  -8.9779
 -6.6589  -6.6583  -6.6578  -1.1613  -1.0557  -0.9984  -0.9396  -0.8832
 -0.7427  -0.7203  -0.6478  -0.5903  -0.5741  -0.5718  -0.5561  -0.5440
 -0.5090  -0.4865  -0.4669  -0.4537  -0.3372  -0.2903

          Ground-State Mulliken Net Atomic Charges

     Atom                 Charge (a.u.)
  ----------------------------------------
      1 C                     0.057268
      2 C                    -0.287716
      3 C                     0.042952
      4 H                     0.175119
      5 C                    -0.276673
      6 S                     0.000538
      7 C                    -0.272730
      8 H                     0.101229
      9 H                     0.107348
     10 H                     0.106976
     11 C                    -0.390527
     12 H                     0.147286
     13 H                     0.160559
     14 H                     0.136317
     15 H                     0.192054
  ----------------------------------------
  Sum of atomic charges =     0.000000

                    Cartesian Multipole Moments
 -----------------------------------------------------------------
    Charge (ESU x 10^10)
                -0.0000
    Dipole Moment (Debye)
         X       0.9180      Y      -0.6364      Z       1.7752
       Tot       2.0974
    Quadrupole Moments (Debye-Ang)
        XX     -53.8842     XY       0.8157     YY     -42.6148
        XZ      -0.1660     YZ      -0.3000     ZZ     -48.6109

 Total job time:  156.47s(wall), 155.62s(cpu)
        *  Thank you very much for using Q-Chem.  Have a nice day.  *
