 Q-Chem 5.4, Q-Chem, Inc., Pleasanton, CA (2021)
 Q-Chem 5.4.0 for Intel X86 EM64T Linux

User input:
--------------------------------------------------------------
$molecule
0 1
C	-0.055798	-0.573729	0.011474
C	0.019502	0.286571	1.110874
C	0.140102	1.665271	0.788174
H	-0.012598	-0.080829	2.147574
C	0.159402	1.885071	-0.601026
S	0.026402	0.365071	-1.475326
C	0.235002	2.748871	1.826074
H	0.197902	2.324771	2.848174
H	-0.596998	3.478371	1.737674
H	1.181002	3.322871	1.737674
C	-0.055798	-2.014429	0.011474
H	-0.883198	-2.014129	0.705574
H	-0.582298	-2.718229	-0.616126
H	0.553002	-2.533329	0.736974
H	0.242102	2.830671	-1.150126
$end

$rem
JOBTYPE		SP
EXCHANGE	HF
CORRELATION	pRIMP2
BASIS		cc-pvtz
METHOD		rimp2
AUX_BASIS	rimp2-cc-pvtz
SOLVENT_METHOD	PCM
PURECART	11111
SYMMETRY	false
MEM_TOTAL	110000
SCF_CONVERGENCE = 6
THRESH=10
$end

$solvent
dielectric 4.90
$end
--------------------------------------------------------------

             Standard Nuclear Orientation (Angstroms)
    I     Atom           X                Y                Z
 ----------------------------------------------------------------
    1      C      -0.0557980000    -0.5737290000     0.0114740000
    2      C       0.0195020000     0.2865710000     1.1108740000
    3      C       0.1401020000     1.6652710000     0.7881740000
    4      H      -0.0125980000    -0.0808290000     2.1475740000
    5      C       0.1594020000     1.8850710000    -0.6010260000
    6      S       0.0264020000     0.3650710000    -1.4753260000
    7      C       0.2350020000     2.7488710000     1.8260740000
    8      H       0.1979020000     2.3247710000     2.8481740000
    9      H      -0.5969980000     3.4783710000     1.7376740000
   10      H       1.1810020000     3.3228710000     1.7376740000
   11      C      -0.0557980000    -2.0144290000     0.0114740000
   12      H      -0.8831980000    -2.0141290000     0.7055740000
   13      H      -0.5822980000    -2.7182290000    -0.6161260000
   14      H       0.5530020000    -2.5333290000     0.7369740000
   15      H       0.2421020000     2.8306710000    -1.1501260000
 ----------------------------------------------------------------

   10    -629.4233053841      6.01e-07  Convergence criterion met
 Total energy in the final basis set =     -629.4233053841
        RIMP2         total energy =      -630.6004305123 a.u.

                    Orbital Energies (a.u.)
 --------------------------------------------------------------

 Alpha MOs
 -- Occupied --
-91.9767 -11.2829 -11.2510 -11.2473 -11.2275 -11.2269 -11.2193  -8.9765
 -6.6575  -6.6569  -6.6564  -1.1602  -1.0551  -0.9987  -0.9401  -0.8837
 -0.7423  -0.7206  -0.6481  -0.5911  -0.5746  -0.5689  -0.5580  -0.5434
 -0.5092  -0.4897  -0.4654  -0.4484  -0.3373  -0.2935

          Ground-State Mulliken Net Atomic Charges

     Atom                 Charge (a.u.)
  ----------------------------------------
      1 C                     0.072459
      2 C                    -0.293207
      3 C                     0.042386
      4 H                     0.176524
      5 C                    -0.270180
      6 S                    -0.003966
      7 C                    -0.275312
      8 H                     0.101095
      9 H                     0.107204
     10 H                     0.107430
     11 C                    -0.387846
     12 H                     0.135342
     13 H                     0.160551
     14 H                     0.135704
     15 H                     0.191817
  ----------------------------------------
  Sum of atomic charges =     0.000000

                    Cartesian Multipole Moments
 -----------------------------------------------------------------
    Charge (ESU x 10^10)
                -0.0000
    Dipole Moment (Debye)
         X      -0.4386      Y      -0.5237      Z       1.9006
       Tot       2.0197
    Quadrupole Moments (Debye-Ang)
        XX     -53.9577     XY       2.0709     YY     -42.0439
        XZ       0.3067     YZ      -0.4846     ZZ     -48.7231

 Total job time:  160.68s(wall), 159.15s(cpu)
        *  Thank you very much for using Q-Chem.  Have a nice day.  *
