 Q-Chem 5.4, Q-Chem, Inc., Pleasanton, CA (2021)
 Q-Chem 5.4.0 for Intel X86 EM64T Linux

User input:
--------------------------------------------------------------
$molecule
0 1
C	-0.518524	-0.333972	0.019788
C	0.143076	0.221128	1.119188
C	1.203176	1.110628	0.796488
H	-0.139424	-0.015972	2.155888
C	1.372276	1.252428	-0.592712
S	0.203376	0.271728	-1.467012
C	2.036476	1.809828	1.834388
H	1.710376	1.536228	2.856488
H	1.964076	2.914028	1.745988
H	3.111276	1.546728	1.745988
C	-0.518524	-1.774672	0.019788
H	-0.887824	-1.774872	-0.995112
H	-1.288324	-2.478472	0.299888
H	0.371476	-2.293572	-0.304112
H	2.099376	1.862628	-1.141812
$end

$rem
JOBTYPE		SP
EXCHANGE	HF
CORRELATION	pRIMP2
BASIS		cc-pvtz
METHOD		rimp2
AUX_BASIS	rimp2-cc-pvtz
SOLVENT_METHOD	PCM
PURECART	11111
SYMMETRY	false
MEM_TOTAL	110000
SCF_CONVERGENCE = 6
THRESH=10
$end

$solvent
dielectric 4.90
$end
--------------------------------------------------------------

             Standard Nuclear Orientation (Angstroms)
    I     Atom           X                Y                Z
 ----------------------------------------------------------------
    1      C      -0.5185240000    -0.3339720000     0.0197880000
    2      C       0.1430760000     0.2211280000     1.1191880000
    3      C       1.2031760000     1.1106280000     0.7964880000
    4      H      -0.1394240000    -0.0159720000     2.1558880000
    5      C       1.3722760000     1.2524280000    -0.5927120000
    6      S       0.2033760000     0.2717280000    -1.4670120000
    7      C       2.0364760000     1.8098280000     1.8343880000
    8      H       1.7103760000     1.5362280000     2.8564880000
    9      H       1.9640760000     2.9140280000     1.7459880000
   10      H       3.1112760000     1.5467280000     1.7459880000
   11      C      -0.5185240000    -1.7746720000     0.0197880000
   12      H      -0.8878240000    -1.7748720000    -0.9951120000
   13      H      -1.2883240000    -2.4784720000     0.2998880000
   14      H       0.3714760000    -2.2935720000    -0.3041120000
   15      H       2.0993760000     1.8626280000    -1.1418120000
 ----------------------------------------------------------------

   10    -629.3703582220      9.23e-07  Convergence criterion met
 Total energy in the final basis set =     -629.3703582220
        RIMP2         total energy =      -630.5578243949 a.u.

                    Orbital Energies (a.u.)
 --------------------------------------------------------------

 Alpha MOs
 -- Occupied --
-91.9774 -11.2758 -11.2519 -11.2481 -11.2437 -11.2280 -11.2097  -8.9780
 -6.6588  -6.6581  -6.6577  -1.1693  -1.0559  -0.9949  -0.9445  -0.8796
 -0.7526  -0.7249  -0.6436  -0.5928  -0.5779  -0.5674  -0.5516  -0.5467
 -0.5160  -0.4697  -0.4570  -0.4412  -0.3345  -0.3038

          Ground-State Mulliken Net Atomic Charges

     Atom                 Charge (a.u.)
  ----------------------------------------
      1 C                    -0.070353
      2 C                    -0.156736
      3 C                     0.002722
      4 H                     0.180670
      5 C                    -0.207256
      6 S                     0.007723
      7 C                    -0.269463
      8 H                     0.102058
      9 H                     0.106697
     10 H                     0.104576
     11 C                    -0.362027
     12 H                     0.105606
     13 H                     0.135353
     14 H                     0.122704
     15 H                     0.197726
  ----------------------------------------
  Sum of atomic charges =     0.000000

                    Cartesian Multipole Moments
 -----------------------------------------------------------------
    Charge (ESU x 10^10)
                -0.0000
    Dipole Moment (Debye)
         X       1.7156      Y       0.3142      Z       1.1398
       Tot       2.0835
    Quadrupole Moments (Debye-Ang)
        XX     -48.9543     XY       5.2175     YY     -48.2458
        XZ      -0.1690     YZ       0.8246     ZZ     -48.2181

 Total job time:  159.31s(wall), 158.34s(cpu)
        *  Thank you very much for using Q-Chem.  Have a nice day.  *
