 Q-Chem 5.4, Q-Chem, Inc., Pleasanton, CA (2021)
 Q-Chem 5.4.0 for Intel X86 EM64T Linux

User input:
--------------------------------------------------------------
$molecule
0 1
C	-0.235926	-0.535397	0.017955
C	0.059474	0.276103	1.117355
C	0.532774	1.576503	0.794655
H	-0.066626	-0.070397	2.154055
C	0.608274	1.783903	-0.594545
S	0.086374	0.350203	-1.468845
C	0.904874	2.598703	1.832555
H	0.759274	2.198703	2.854655
H	0.290074	3.518703	1.744155
H	1.967274	2.908303	1.744155
C	-0.235926	-1.976097	0.017955
H	0.699474	-1.975797	-0.521945
H	0.173574	-2.679897	0.727455
H	-0.709526	-2.494997	-0.802245
H	0.932974	2.675903	-1.143645
$end

$rem
JOBTYPE		SP
EXCHANGE	HF
CORRELATION	pRIMP2
BASIS		cc-pvtz
METHOD		rimp2
AUX_BASIS	rimp2-cc-pvtz
SOLVENT_METHOD	PCM
PURECART	11111
SYMMETRY	false
MEM_TOTAL	110000
SCF_CONVERGENCE = 6
THRESH=10
$end

$solvent
dielectric 4.90
$end
--------------------------------------------------------------

   10    -629.4168835995      7.05e-07  Convergence criterion met
 Total energy in the final basis set =     -629.4168835995
        RIMP2         total energy =      -630.5937216527 a.u.
 Total job time:  158.96s(wall), 156.89s(cpu)
        *  Thank you very much for using Q-Chem.  Have a nice day.  *
 Q-Chem 5.4, Q-Chem, Inc., Pleasanton, CA (2021)
 Q-Chem 5.4.0 for Intel X86 EM64T Linux

User input:
--------------------------------------------------------------
$molecule
0 1
C	-0.235926	-0.535397	0.017955
C	0.059474	0.276103	1.117355
C	0.532774	1.576503	0.794655
H	-0.066626	-0.070397	2.154055
C	0.608274	1.783903	-0.594545
S	0.086374	0.350203	-1.468845
C	0.904874	2.598703	1.832555
H	0.759274	2.198703	2.854655
H	0.290074	3.518703	1.744155
H	1.967274	2.908303	1.744155
C	-0.235926	-1.976097	0.017955
H	0.699474	-1.975797	-0.521945
H	0.173574	-2.679897	0.727455
H	-0.709526	-2.494997	-0.802245
H	0.932974	2.675903	-1.143645
$end

$rem
JOBTYPE		SP
EXCHANGE	HF
CORRELATION	pRIMP2
BASIS		cc-pvtz
METHOD		rimp2
AUX_BASIS	rimp2-cc-pvtz
SOLVENT_METHOD	PCM
PURECART	11111
SYMMETRY	false
MEM_TOTAL	110000
SCF_CONVERGENCE = 6
THRESH=10
$end

$solvent
dielectric 4.90
$end
--------------------------------------------------------------

             Standard Nuclear Orientation (Angstroms)
    I     Atom           X                Y                Z
 ----------------------------------------------------------------
    1      C      -0.2359260000    -0.5353970000     0.0179550000
    2      C       0.0594740000     0.2761030000     1.1173550000
    3      C       0.5327740000     1.5765030000     0.7946550000
    4      H      -0.0666260000    -0.0703970000     2.1540550000
    5      C       0.6082740000     1.7839030000    -0.5945450000
    6      S       0.0863740000     0.3502030000    -1.4688450000
    7      C       0.9048740000     2.5987030000     1.8325550000
    8      H       0.7592740000     2.1987030000     2.8546550000
    9      H       0.2900740000     3.5187030000     1.7441550000
   10      H       1.9672740000     2.9083030000     1.7441550000
   11      C      -0.2359260000    -1.9760970000     0.0179550000
   12      H       0.6994740000    -1.9757970000    -0.5219450000
   13      H       0.1735740000    -2.6798970000     0.7274550000
   14      H      -0.7095260000    -2.4949970000    -0.8022450000
   15      H       0.9329740000     2.6759030000    -1.1436450000
 ----------------------------------------------------------------

   10    -629.4168835995      7.05e-07  Convergence criterion met
 Total energy in the final basis set =     -629.4168835995
        RIMP2         total energy =      -630.5937216527 a.u.

                    Orbital Energies (a.u.)
 --------------------------------------------------------------

 Alpha MOs
 -- Occupied --
-91.9770 -11.2811 -11.2537 -11.2470 -11.2267 -11.2264 -11.2200  -8.9772
 -6.6582  -6.6577  -6.6570  -1.1623  -1.0565  -0.9956  -0.9438  -0.8814
 -0.7461  -0.7190  -0.6489  -0.5873  -0.5782  -0.5647  -0.5527  -0.5477
 -0.5084  -0.4920  -0.4643  -0.4536  -0.3399  -0.2912

          Ground-State Mulliken Net Atomic Charges

     Atom                 Charge (a.u.)
  ----------------------------------------
      1 C                     0.060368
      2 C                    -0.324375
      3 C                     0.062246
      4 H                     0.178406
      5 C                    -0.270749
      6 S                    -0.003461
      7 C                    -0.271575
      8 H                     0.101526
      9 H                     0.107571
     10 H                     0.107003
     11 C                    -0.372067
     12 H                     0.138874
     13 H                     0.160908
     14 H                     0.132084
     15 H                     0.193240
  ----------------------------------------
  Sum of atomic charges =     0.000000

                    Cartesian Multipole Moments
 -----------------------------------------------------------------
    Charge (ESU x 10^10)
                -0.0000
    Dipole Moment (Debye)
         X       1.0595      Y      -0.4854      Z       1.1238
       Tot       1.6190
    Quadrupole Moments (Debye-Ang)
        XX     -53.5389     XY       1.5570     YY     -42.9680
        XZ       0.4003     YZ       0.8371     ZZ     -48.6528

 Total job time:  156.98s(wall), 155.55s(cpu)
        *  Thank you very much for using Q-Chem.  Have a nice day.  *
