 Q-Chem 5.4, Q-Chem, Inc., Pleasanton, CA (2021)
 Q-Chem 5.4.0 for Intel X86 EM64T Linux

User input:
--------------------------------------------------------------
$molecule
0 1
C	-0.114252	-0.566007	0.011685
C	0.035748	0.284493	1.111085
C	0.276048	1.647393	0.788385
H	-0.028352	-0.078707	2.147785
C	0.314448	1.864693	-0.600815
S	0.049448	0.362093	-1.475115
C	0.464948	2.718593	1.826285
H	0.391048	2.299393	2.848385
H	-0.300252	3.517893	1.737885
H	1.457448	3.207893	1.737885
C	-0.114252	-2.006707	0.011685
H	-0.808552	-2.006907	0.838985
H	0.513248	-2.710507	0.538285
H	-0.839852	-2.525607	-0.597115
H	0.479248	2.799393	-1.149915
$end

$rem
JOBTYPE		SP
EXCHANGE	HF
CORRELATION	pRIMP2
BASIS		cc-pvtz
METHOD		rimp2
AUX_BASIS	rimp2-cc-pvtz
SOLVENT_METHOD	PCM
PURECART	11111
SYMMETRY	false
MEM_TOTAL	110000
SCF_CONVERGENCE = 6
THRESH=10
$end

$solvent
dielectric 4.90
$end
--------------------------------------------------------------

   10    -629.4219605717      5.48e-07  Convergence criterion met
 Total energy in the final basis set =     -629.4219605717
        RIMP2         total energy =      -630.5999081394 a.u.
 Total job time:  157.37s(wall), 154.75s(cpu)
        *  Thank you very much for using Q-Chem.  Have a nice day.  *
 Q-Chem 5.4, Q-Chem, Inc., Pleasanton, CA (2021)
 Q-Chem 5.4.0 for Intel X86 EM64T Linux

User input:
--------------------------------------------------------------
$molecule
0 1
C	-0.114252	-0.566007	0.011685
C	0.035748	0.284493	1.111085
C	0.276048	1.647393	0.788385
H	-0.028352	-0.078707	2.147785
C	0.314448	1.864693	-0.600815
S	0.049448	0.362093	-1.475115
C	0.464948	2.718593	1.826285
H	0.391048	2.299393	2.848385
H	-0.300252	3.517893	1.737885
H	1.457448	3.207893	1.737885
C	-0.114252	-2.006707	0.011685
H	-0.808552	-2.006907	0.838985
H	0.513248	-2.710507	0.538285
H	-0.839852	-2.525607	-0.597115
H	0.479248	2.799393	-1.149915
$end

$rem
JOBTYPE		SP
EXCHANGE	HF
CORRELATION	pRIMP2
BASIS		cc-pvtz
METHOD		rimp2
AUX_BASIS	rimp2-cc-pvtz
SOLVENT_METHOD	PCM
PURECART	11111
SYMMETRY	false
MEM_TOTAL	110000
SCF_CONVERGENCE = 6
THRESH=10
$end

$solvent
dielectric 4.90
$end
--------------------------------------------------------------

             Standard Nuclear Orientation (Angstroms)
    I     Atom           X                Y                Z
 ----------------------------------------------------------------
    1      C      -0.1142520000    -0.5660070000     0.0116850000
    2      C       0.0357480000     0.2844930000     1.1110850000
    3      C       0.2760480000     1.6473930000     0.7883850000
    4      H      -0.0283520000    -0.0787070000     2.1477850000
    5      C       0.3144480000     1.8646930000    -0.6008150000
    6      S       0.0494480000     0.3620930000    -1.4751150000
    7      C       0.4649480000     2.7185930000     1.8262850000
    8      H       0.3910480000     2.2993930000     2.8483850000
    9      H      -0.3002520000     3.5178930000     1.7378850000
   10      H       1.4574480000     3.2078930000     1.7378850000
   11      C      -0.1142520000    -2.0067070000     0.0116850000
   12      H      -0.8085520000    -2.0069070000     0.8389850000
   13      H       0.5132480000    -2.7105070000     0.5382850000
   14      H      -0.8398520000    -2.5256070000    -0.5971150000
   15      H       0.4792480000     2.7993930000    -1.1499150000
 ----------------------------------------------------------------

   10    -629.4219605717      5.48e-07  Convergence criterion met
 Total energy in the final basis set =     -629.4219605717
        RIMP2         total energy =      -630.5999081394 a.u.

                    Orbital Energies (a.u.)
 --------------------------------------------------------------

 Alpha MOs
 -- Occupied --
-91.9763 -11.2791 -11.2546 -11.2472 -11.2304 -11.2271 -11.2176  -8.9763
 -6.6572  -6.6566  -6.6561  -1.1605  -1.0543  -0.9988  -0.9404  -0.8840
 -0.7425  -0.7221  -0.6494  -0.5887  -0.5756  -0.5652  -0.5604  -0.5430
 -0.5100  -0.4889  -0.4656  -0.4448  -0.3375  -0.2971

          Ground-State Mulliken Net Atomic Charges

     Atom                 Charge (a.u.)
  ----------------------------------------
      1 C                     0.059557
      2 C                    -0.284024
      3 C                     0.039824
      4 H                     0.177600
      5 C                    -0.261078
      6 S                    -0.004308
      7 C                    -0.274477
      8 H                     0.101162
      9 H                     0.107051
     10 H                     0.107321
     11 C                    -0.374687
     12 H                     0.128448
     13 H                     0.147813
     14 H                     0.137063
     15 H                     0.192733
  ----------------------------------------
  Sum of atomic charges =     0.000000

                    Cartesian Multipole Moments
 -----------------------------------------------------------------
    Charge (ESU x 10^10)
                -0.0000
    Dipole Moment (Debye)
         X      -0.2162      Y      -0.2781      Z       1.9858
       Tot       2.0168
    Quadrupole Moments (Debye-Ang)
        XX     -53.6209     XY       2.4543     YY     -42.3800
        XZ       0.2977     YZ      -0.8751     ZZ     -48.7448

 Total job time:  157.98s(wall), 155.61s(cpu)
        *  Thank you very much for using Q-Chem.  Have a nice day.  *
