 Q-Chem 5.4, Q-Chem, Inc., Pleasanton, CA (2021)
 Q-Chem 5.4.0 for Intel X86 EM64T Linux

User input:
--------------------------------------------------------------
$molecule
0 1
C	-0.287269	-0.512746	0.010180
C	0.077731	0.269954	1.109580
C	0.662631	1.524154	0.786880
H	-0.078169	-0.064346	2.146280
C	0.755931	1.724154	-0.602320
S	0.111031	0.341354	-1.476620
C	1.122331	2.509954	1.824780
H	0.942431	2.124254	2.846880
H	0.590031	3.480154	1.736380
H	2.207631	2.725854	1.736380
C	-0.287269	-1.953446	0.010180
H	-0.287369	-1.953146	1.090180
H	-1.106469	-2.657246	0.010080
H	0.659831	-2.472346	0.010180
H	1.157031	2.584454	-1.151420
$end

$rem
JOBTYPE		SP
EXCHANGE	HF
CORRELATION	pRIMP2
BASIS		cc-pvtz
METHOD		rimp2
AUX_BASIS	rimp2-cc-pvtz
SOLVENT_METHOD	PCM
PURECART	11111
SYMMETRY	false
MEM_TOTAL	110000
SCF_CONVERGENCE = 6
THRESH=10
$end

$solvent
dielectric 4.90
$end
--------------------------------------------------------------

             Standard Nuclear Orientation (Angstroms)
    I     Atom           X                Y                Z
 ----------------------------------------------------------------
    1      C      -0.2872690000    -0.5127460000     0.0101800000
    2      C       0.0777310000     0.2699540000     1.1095800000
    3      C       0.6626310000     1.5241540000     0.7868800000
    4      H      -0.0781690000    -0.0643460000     2.1462800000
    5      C       0.7559310000     1.7241540000    -0.6023200000
    6      S       0.1110310000     0.3413540000    -1.4766200000
    7      C       1.1223310000     2.5099540000     1.8247800000
    8      H       0.9424310000     2.1242540000     2.8468800000
    9      H       0.5900310000     3.4801540000     1.7363800000
   10      H       2.2076310000     2.7258540000     1.7363800000
   11      C      -0.2872690000    -1.9534460000     0.0101800000
   12      H      -0.2873690000    -1.9531460000     1.0901800000
   13      H      -1.1064690000    -2.6572460000     0.0100800000
   14      H       0.6598310000    -2.4723460000     0.0101800000
   15      H       1.1570310000     2.5844540000    -1.1514200000
 ----------------------------------------------------------------

   10    -629.4130622989      4.94e-07  Convergence criterion met
 Total energy in the final basis set =     -629.4130622989
        RIMP2         total energy =      -630.5936250568 a.u.

                    Orbital Energies (a.u.)
 --------------------------------------------------------------

 Alpha MOs
 -- Occupied --
-91.9742 -11.2729 -11.2610 -11.2473 -11.2371 -11.2277 -11.2146  -8.9745
 -6.6554  -6.6548  -6.6543  -1.1630  -1.0540  -0.9996  -0.9384  -0.8842
 -0.7428  -0.7258  -0.6470  -0.5919  -0.5788  -0.5664  -0.5586  -0.5419
 -0.5120  -0.4809  -0.4676  -0.4353  -0.3373  -0.3045

          Ground-State Mulliken Net Atomic Charges

     Atom                 Charge (a.u.)
  ----------------------------------------
      1 C                     0.032009
      2 C                    -0.264669
      3 C                     0.038735
      4 H                     0.176585
      5 C                    -0.245285
      6 S                    -0.005338
      7 C                    -0.270775
      8 H                     0.101271
      9 H                     0.106996
     10 H                     0.106889
     11 C                    -0.362483
     12 H                     0.117815
     13 H                     0.142622
     14 H                     0.132278
     15 H                     0.193350
  ----------------------------------------
  Sum of atomic charges =     0.000000

                    Cartesian Multipole Moments
 -----------------------------------------------------------------
    Charge (ESU x 10^10)
                -0.0000
    Dipole Moment (Debye)
         X       0.7364      Y       0.0331      Z       2.1818
       Tot       2.3030
    Quadrupole Moments (Debye-Ang)
        XX     -52.2474     XY       3.4922     YY     -44.0263
        XZ      -0.1170     YZ      -1.0987     ZZ     -48.8535

 Total job time:  157.34s(wall), 156.31s(cpu)
        *  Thank you very much for using Q-Chem.  Have a nice day.  *
