 Q-Chem 5.4, Q-Chem, Inc., Pleasanton, CA (2021)
 Q-Chem 5.4.0 for Intel X86 EM64T Linux

User input:
--------------------------------------------------------------
$molecule
0 1
C	-0.058570	-0.573727	0.010180
C	0.016730	0.286573	1.109580
C	0.137330	1.665273	0.786880
H	-0.015370	-0.080827	2.146280
C	0.156630	1.885073	-0.602320
S	0.023630	0.365073	-1.476620
C	0.232230	2.748873	1.824780
H	0.195130	2.324773	2.846880
H	-0.599770	3.478373	1.736380
H	1.178230	3.322873	1.736380
C	-0.058570	-2.014427	0.010180
H	-0.058670	-2.014627	1.090180
H	0.760630	-2.718227	0.010280
H	-1.005670	-2.533327	0.010180
H	0.239330	2.830673	-1.151420
$end

$rem
JOBTYPE		SP
EXCHANGE	HF
CORRELATION	pRIMP2
BASIS		cc-pvtz
METHOD		rimp2
AUX_BASIS	rimp2-cc-pvtz
SOLVENT_METHOD	PCM
PURECART	11111
SYMMETRY	false
MEM_TOTAL	110000
SCF_CONVERGENCE = 6
THRESH=10
$end

$solvent
dielectric 4.90
$end
--------------------------------------------------------------

             Standard Nuclear Orientation (Angstroms)
    I     Atom           X                Y                Z
 ----------------------------------------------------------------
    1      C      -0.0585700000    -0.5737270000     0.0101800000
    2      C       0.0167300000     0.2865730000     1.1095800000
    3      C       0.1373300000     1.6652730000     0.7868800000
    4      H      -0.0153700000    -0.0808270000     2.1462800000
    5      C       0.1566300000     1.8850730000    -0.6023200000
    6      S       0.0236300000     0.3650730000    -1.4766200000
    7      C       0.2322300000     2.7488730000     1.8247800000
    8      H       0.1951300000     2.3247730000     2.8468800000
    9      H      -0.5997700000     3.4783730000     1.7363800000
   10      H       1.1782300000     3.3228730000     1.7363800000
   11      C      -0.0585700000    -2.0144270000     0.0101800000
   12      H      -0.0586700000    -2.0146270000     1.0901800000
   13      H       0.7606300000    -2.7182270000     0.0102800000
   14      H      -1.0056700000    -2.5333270000     0.0101800000
   15      H       0.2393300000     2.8306730000    -1.1514200000
 ----------------------------------------------------------------

   10    -629.4244388030      4.91e-07  Convergence criterion met
 Total energy in the final basis set =     -629.4244388030
        RIMP2         total energy =      -630.6024268155 a.u.

                    Orbital Energies (a.u.)
 --------------------------------------------------------------

 Alpha MOs
 -- Occupied --
-91.9748 -11.2773 -11.2577 -11.2470 -11.2346 -11.2274 -11.2162  -8.9750
 -6.6559  -6.6553  -6.6548  -1.1611  -1.0539  -0.9997  -0.9397  -0.8845
 -0.7423  -0.7244  -0.6489  -0.5914  -0.5779  -0.5667  -0.5593  -0.5419
 -0.5106  -0.4847  -0.4680  -0.4370  -0.3380  -0.3045

          Ground-State Mulliken Net Atomic Charges

     Atom                 Charge (a.u.)
  ----------------------------------------
      1 C                     0.065850
      2 C                    -0.270405
      3 C                     0.030895
      4 H                     0.177415
      5 C                    -0.250007
      6 S                    -0.008222
      7 C                    -0.273730
      8 H                     0.101098
      9 H                     0.107162
     10 H                     0.107306
     11 C                    -0.370702
     12 H                     0.119664
     13 H                     0.142959
     14 H                     0.127371
     15 H                     0.193343
  ----------------------------------------
  Sum of atomic charges =     0.000000

                    Cartesian Multipole Moments
 -----------------------------------------------------------------
    Charge (ESU x 10^10)
                -0.0000
    Dipole Moment (Debye)
         X       0.1154      Y      -0.0522      Z       2.1523
       Tot       2.1561
    Quadrupole Moments (Debye-Ang)
        XX     -53.6256     XY       0.6579     YY     -42.2344
        XZ      -0.0133     YZ      -1.0954     ZZ     -48.9689

 Total job time:  161.45s(wall), 159.57s(cpu)
        *  Thank you very much for using Q-Chem.  Have a nice day.  *
