 Q-Chem 5.4, Q-Chem, Inc., Pleasanton, CA (2021)
 Q-Chem 5.4.0 for Intel X86 EM64T Linux

User input:
--------------------------------------------------------------
$molecule
0 1
C	-0.583108	-0.237129	0.012833
C	0.164792	0.194671	1.112233
C	1.363292	0.886571	0.789533
H	-0.154608	0.010271	2.148933
C	1.554392	0.996871	-0.599667
S	0.233092	0.234071	-1.473967
C	2.305392	1.430471	1.827433
H	1.936692	1.217571	2.849533
H	2.425792	2.530371	1.739033
H	3.318192	0.984671	1.739033
C	-0.583108	-1.677829	0.012833
H	-1.598008	-1.677529	0.382133
H	-0.863208	-2.381629	-0.756967
H	-0.259208	-2.196729	0.902833
H	2.376492	1.471471	-1.148767
$end

$rem
JOBTYPE		SP
EXCHANGE	HF
CORRELATION	pRIMP2
BASIS		cc-pvtz
METHOD		rimp2
AUX_BASIS	rimp2-cc-pvtz
SOLVENT_METHOD	PCM
PURECART	11111
SYMMETRY	false
MEM_TOTAL	110000
SCF_CONVERGENCE = 6
THRESH=10
$end

$solvent
dielectric 4.90
$end
--------------------------------------------------------------

             Standard Nuclear Orientation (Angstroms)
    I     Atom           X                Y                Z
 ----------------------------------------------------------------
    1      C      -0.5831080000    -0.2371290000     0.0128330000
    2      C       0.1647920000     0.1946710000     1.1122330000
    3      C       1.3632920000     0.8865710000     0.7895330000
    4      H      -0.1546080000     0.0102710000     2.1489330000
    5      C       1.5543920000     0.9968710000    -0.5996670000
    6      S       0.2330920000     0.2340710000    -1.4739670000
    7      C       2.3053920000     1.4304710000     1.8274330000
    8      H       1.9366920000     1.2175710000     2.8495330000
    9      H       2.4257920000     2.5303710000     1.7390330000
   10      H       3.3181920000     0.9846710000     1.7390330000
   11      C      -0.5831080000    -1.6778290000     0.0128330000
   12      H      -1.5980080000    -1.6775290000     0.3821330000
   13      H      -0.8632080000    -2.3816290000    -0.7569670000
   14      H      -0.2592080000    -2.1967290000     0.9028330000
   15      H       2.3764920000     1.4714710000    -1.1487670000
 ----------------------------------------------------------------

   11    -629.3381437137      6.39e-07  Convergence criterion met
 Total energy in the final basis set =     -629.3381437137
        RIMP2         total energy =      -630.5314793180 a.u.

                    Orbital Energies (a.u.)
 --------------------------------------------------------------

 Alpha MOs
 -- Occupied --
-91.9710 -11.2796 -11.2523 -11.2492 -11.2432 -11.2289 -11.2050  -8.9721
 -6.6530  -6.6519  -6.6518  -1.1718  -1.0549  -0.9986  -0.9370  -0.8825
 -0.7488  -0.7307  -0.6413  -0.5861  -0.5831  -0.5657  -0.5528  -0.5427
 -0.5180  -0.4927  -0.4593  -0.4161  -0.3349  -0.2854

          Ground-State Mulliken Net Atomic Charges

     Atom                 Charge (a.u.)
  ----------------------------------------
      1 C                    -0.091987
      2 C                    -0.144676
      3 C                    -0.011870
      4 H                     0.184410
      5 C                    -0.186437
      6 S                     0.013900
      7 C                    -0.268303
      8 H                     0.101842
      9 H                     0.106669
     10 H                     0.104774
     11 C                    -0.402498
     12 H                     0.124576
     13 H                     0.147978
     14 H                     0.126502
     15 H                     0.195121
  ----------------------------------------
  Sum of atomic charges =     0.000000

                    Cartesian Multipole Moments
 -----------------------------------------------------------------
    Charge (ESU x 10^10)
                -0.0000
    Dipole Moment (Debye)
         X       1.7920      Y       0.0100      Z       1.9443
       Tot       2.6442
    Quadrupole Moments (Debye-Ang)
        XX     -47.7455     XY       5.3339     YY     -50.0807
        XZ      -0.0595     YZ      -0.0305     ZZ     -47.6193

 Total job time:  175.88s(wall), 174.45s(cpu)
        *  Thank you very much for using Q-Chem.  Have a nice day.  *
