 Q-Chem 5.4, Q-Chem, Inc., Pleasanton, CA (2021)
 Q-Chem 5.4.0 for Intel X86 EM64T Linux

User input:
--------------------------------------------------------------
$molecule
0 1
C	-0.335619	-0.485421	0.018379
C	0.096181	0.262479	1.117779
C	0.788181	1.460979	0.795079
H	-0.088219	-0.056921	2.154479
C	0.898481	1.652079	-0.594121
S	0.135581	0.330679	-1.468421
C	1.332081	2.402979	1.832979
H	1.119281	2.034379	2.855079
H	0.886381	3.415779	1.744579
H	2.432081	2.523379	1.744579
C	-0.335619	-1.926121	0.018379
H	-1.029719	-1.925821	-0.809021
H	0.291981	-2.629921	-0.508121
H	-1.061119	-2.445021	0.627179
H	1.373181	2.474079	-1.143221
$end

$rem
JOBTYPE		SP
EXCHANGE	HF
CORRELATION	pRIMP2
BASIS		cc-pvtz
METHOD		rimp2
AUX_BASIS	rimp2-cc-pvtz
SOLVENT_METHOD	PCM
PURECART	11111
SYMMETRY	false
MEM_TOTAL	110000
SCF_CONVERGENCE = 6
THRESH=10
$end

$solvent
dielectric 4.90
$end
--------------------------------------------------------------

             Standard Nuclear Orientation (Angstroms)
    I     Atom           X                Y                Z
 ----------------------------------------------------------------
    1      C      -0.3356190000    -0.4854210000     0.0183790000
    2      C       0.0961810000     0.2624790000     1.1177790000
    3      C       0.7881810000     1.4609790000     0.7950790000
    4      H      -0.0882190000    -0.0569210000     2.1544790000
    5      C       0.8984810000     1.6520790000    -0.5941210000
    6      S       0.1355810000     0.3306790000    -1.4684210000
    7      C       1.3320810000     2.4029790000     1.8329790000
    8      H       1.1192810000     2.0343790000     2.8550790000
    9      H       0.8863810000     3.4157790000     1.7445790000
   10      H       2.4320810000     2.5233790000     1.7445790000
   11      C      -0.3356190000    -1.9261210000     0.0183790000
   12      H      -1.0297190000    -1.9258210000    -0.8090210000
   13      H       0.2919810000    -2.6299210000    -0.5081210000
   14      H      -1.0611190000    -2.4450210000     0.6271790000
   15      H       1.3731810000     2.4740790000    -1.1432210000
 ----------------------------------------------------------------

   10    -629.4013986734      5.32e-07  Convergence criterion met
 Total energy in the final basis set =     -629.4013986734
        RIMP2         total energy =      -630.5831444535 a.u.

                    Orbital Energies (a.u.)
 --------------------------------------------------------------

 Alpha MOs
 -- Occupied --
-91.9787 -11.2685 -11.2623 -11.2475 -11.2330 -11.2271 -11.2135  -8.9787
 -6.6596  -6.6591  -6.6585  -1.1627  -1.0542  -0.9955  -0.9447  -0.8819
 -0.7479  -0.7207  -0.6452  -0.5888  -0.5755  -0.5711  -0.5507  -0.5462
 -0.5130  -0.4799  -0.4602  -0.4480  -0.3377  -0.2974

          Ground-State Mulliken Net Atomic Charges

     Atom                 Charge (a.u.)
  ----------------------------------------
      1 C                    -0.014833
      2 C                    -0.229463
      3 C                     0.030956
      4 H                     0.180581
      5 C                    -0.239956
      6 S                    -0.001010
      7 C                    -0.271225
      8 H                     0.101735
      9 H                     0.106851
     10 H                     0.106049
     11 C                    -0.364916
     12 H                     0.116331
     13 H                     0.153335
     14 H                     0.130883
     15 H                     0.194682
  ----------------------------------------
  Sum of atomic charges =     0.000000

                    Cartesian Multipole Moments
 -----------------------------------------------------------------
    Charge (ESU x 10^10)
                -0.0000
    Dipole Moment (Debye)
         X       0.4827      Y       0.0817      Z       1.0855
       Tot       1.1908
    Quadrupole Moments (Debye-Ang)
        XX     -51.7078     XY       4.6892     YY     -44.6429
        XZ      -0.1905     YZ       1.0557     ZZ     -48.5375

 Total job time:  158.04s(wall), 154.83s(cpu)
        *  Thank you very much for using Q-Chem.  Have a nice day.  *
