 Q-Chem 5.4, Q-Chem, Inc., Pleasanton, CA (2021)
 Q-Chem 5.4.0 for Intel X86 EM64T Linux

User input:
--------------------------------------------------------------
$molecule
0 1
C	-0.592348	-0.237129	0.014755
C	0.155552	0.194671	1.114155
C	1.354052	0.886571	0.791455
H	-0.163848	0.010271	2.150855
C	1.545152	0.996871	-0.597745
S	0.223852	0.234071	-1.472045
C	2.296152	1.430471	1.829355
H	1.927452	1.217571	2.851455
H	2.416552	2.530371	1.740955
H	3.308952	0.984671	1.740955
C	-0.592348	-1.677829	0.014755
H	0.471252	-1.677529	0.202455
H	-0.734648	-2.381629	0.821455
H	-0.427848	-2.196729	-0.917945
H	2.367252	1.471471	-1.146845
$end

$rem
JOBTYPE		SP
EXCHANGE	HF
CORRELATION	pRIMP2
BASIS		cc-pvtz
METHOD		rimp2
AUX_BASIS	rimp2-cc-pvtz
SOLVENT_METHOD	PCM
PURECART	11111
SYMMETRY	false
MEM_TOTAL	110000
SCF_CONVERGENCE = 6
THRESH=10
$end

$solvent
dielectric 4.90
$end
--------------------------------------------------------------

             Standard Nuclear Orientation (Angstroms)
    I     Atom           X                Y                Z
 ----------------------------------------------------------------
    1      C      -0.5923480000    -0.2371290000     0.0147550000
    2      C       0.1555520000     0.1946710000     1.1141550000
    3      C       1.3540520000     0.8865710000     0.7914550000
    4      H      -0.1638480000     0.0102710000     2.1508550000
    5      C       1.5451520000     0.9968710000    -0.5977450000
    6      S       0.2238520000     0.2340710000    -1.4720450000
    7      C       2.2961520000     1.4304710000     1.8293550000
    8      H       1.9274520000     1.2175710000     2.8514550000
    9      H       2.4165520000     2.5303710000     1.7409550000
   10      H       3.3089520000     0.9846710000     1.7409550000
   11      C      -0.5923480000    -1.6778290000     0.0147550000
   12      H       0.4712520000    -1.6775290000     0.2024550000
   13      H      -0.7346480000    -2.3816290000     0.8214550000
   14      H      -0.4278480000    -2.1967290000    -0.9179450000
   15      H       2.3672520000     1.4714710000    -1.1468450000
 ----------------------------------------------------------------

   11    -629.3454940776      5.98e-07  Convergence criterion met
 Total energy in the final basis set =     -629.3454940776
        RIMP2         total energy =      -630.5384092372 a.u.

                    Orbital Energies (a.u.)
 --------------------------------------------------------------

 Alpha MOs
 -- Occupied --
-91.9779 -11.2792 -11.2561 -11.2511 -11.2433 -11.2293 -11.2132  -8.9786
 -6.6594  -6.6587  -6.6584  -1.1789  -1.0595  -0.9996  -0.9367  -0.8807
 -0.7520  -0.7303  -0.6472  -0.5930  -0.5806  -0.5677  -0.5541  -0.5462
 -0.5095  -0.4903  -0.4620  -0.4396  -0.3361  -0.2879

          Ground-State Mulliken Net Atomic Charges

     Atom                 Charge (a.u.)
  ----------------------------------------
      1 C                    -0.091652
      2 C                    -0.136610
      3 C                    -0.018389
      4 H                     0.181474
      5 C                    -0.206736
      6 S                     0.027134
      7 C                    -0.267585
      8 H                     0.102815
      9 H                     0.107568
     10 H                     0.103904
     11 C                    -0.361376
     12 H                     0.106346
     13 H                     0.132287
     14 H                     0.122545
     15 H                     0.198276
  ----------------------------------------
  Sum of atomic charges =     0.000000

                    Cartesian Multipole Moments
 -----------------------------------------------------------------
    Charge (ESU x 10^10)
                -0.0000
    Dipole Moment (Debye)
         X       2.7072      Y      -0.1196      Z       1.6434
       Tot       3.1692
    Quadrupole Moments (Debye-Ang)
        XX     -49.0157     XY       3.8124     YY     -49.9078
        XZ      -0.3290     YZ      -0.4143     ZZ     -47.5016

 Total job time:  182.22s(wall), 180.23s(cpu)
        *  Thank you very much for using Q-Chem.  Have a nice day.  *
