 Q-Chem 5.4, Q-Chem, Inc., Pleasanton, CA (2021)
 Q-Chem 5.4.0 for Intel X86 EM64T Linux

User input:
--------------------------------------------------------------
$molecule
0 1
C	-0.064023	-0.573727	0.015308
C	0.011277	0.286573	1.114708
C	0.131877	1.665273	0.792008
H	-0.020823	-0.080827	2.151408
C	0.151177	1.885073	-0.597192
S	0.018177	0.365073	-1.471492
C	0.226777	2.748873	1.829908
H	0.189677	2.324773	2.852008
H	-0.605223	3.478373	1.741508
H	1.172777	3.322873	1.741508
C	-0.064023	-2.014427	0.015308
H	0.999577	-2.014627	-0.172092
H	-0.206223	-2.718227	-0.791492
H	0.100477	-2.533327	0.948008
H	0.233877	2.830673	-1.146292
$end

$rem
JOBTYPE		SP
EXCHANGE	HF
CORRELATION	pRIMP2
BASIS		cc-pvtz
METHOD		rimp2
AUX_BASIS	rimp2-cc-pvtz
SOLVENT_METHOD	PCM
PURECART	11111
SYMMETRY	false
MEM_TOTAL	110000
SCF_CONVERGENCE = 6
THRESH=10
$end

$solvent
dielectric 4.90
$end
--------------------------------------------------------------

             Standard Nuclear Orientation (Angstroms)
    I     Atom           X                Y                Z
 ----------------------------------------------------------------
    1      C      -0.0640230000    -0.5737270000     0.0153080000
    2      C       0.0112770000     0.2865730000     1.1147080000
    3      C       0.1318770000     1.6652730000     0.7920080000
    4      H      -0.0208230000    -0.0808270000     2.1514080000
    5      C       0.1511770000     1.8850730000    -0.5971920000
    6      S       0.0181770000     0.3650730000    -1.4714920000
    7      C       0.2267770000     2.7488730000     1.8299080000
    8      H       0.1896770000     2.3247730000     2.8520080000
    9      H      -0.6052230000     3.4783730000     1.7415080000
   10      H       1.1727770000     3.3228730000     1.7415080000
   11      C      -0.0640230000    -2.0144270000     0.0153080000
   12      H       0.9995770000    -2.0146270000    -0.1720920000
   13      H      -0.2062230000    -2.7182270000    -0.7914920000
   14      H       0.1004770000    -2.5333270000     0.9480080000
   15      H       0.2338770000     2.8306730000    -1.1462920000
 ----------------------------------------------------------------

   10    -629.4254708953      7.03e-07  Convergence criterion met
 Total energy in the final basis set =     -629.4254708953
        RIMP2         total energy =      -630.6003997621 a.u.

                    Orbital Energies (a.u.)
 --------------------------------------------------------------

 Alpha MOs
 -- Occupied --
-91.9775 -11.2863 -11.2489 -11.2469 -11.2264 -11.2234 -11.2228  -8.9774
 -6.6584  -6.6579  -6.6572  -1.1605  -1.0565  -0.9971  -0.9424  -0.8825
 -0.7443  -0.7185  -0.6478  -0.5898  -0.5763  -0.5692  -0.5513  -0.5467
 -0.5074  -0.4937  -0.4662  -0.4562  -0.3389  -0.2889

          Ground-State Mulliken Net Atomic Charges

     Atom                 Charge (a.u.)
  ----------------------------------------
      1 C                     0.065815
      2 C                    -0.311881
      3 C                     0.051575
      4 H                     0.177837
      5 C                    -0.279113
      6 S                    -0.004645
      7 C                    -0.274017
      8 H                     0.101267
      9 H                     0.107310
     10 H                     0.107485
     11 C                    -0.380299
     12 H                     0.143826
     13 H                     0.161345
     14 H                     0.140780
     15 H                     0.192715
  ----------------------------------------
  Sum of atomic charges =     0.000000

                    Cartesian Multipole Moments
 -----------------------------------------------------------------
    Charge (ESU x 10^10)
                -0.0000
    Dipole Moment (Debye)
         X       0.8219      Y      -0.7587      Z       1.2919
       Tot       1.7088
    Quadrupole Moments (Debye-Ang)
        XX     -54.4170     XY      -0.7243     YY     -41.7074
        XZ       0.1675     YZ       0.7448     ZZ     -48.6334

 Total job time:  158.93s(wall), 157.67s(cpu)
        *  Thank you very much for using Q-Chem.  Have a nice day.  *
