 Q-Chem 5.4, Q-Chem, Inc., Pleasanton, CA (2021)
 Q-Chem 5.4.0 for Intel X86 EM64T Linux

User input:
--------------------------------------------------------------
$molecule
0 1
C	-0.442972	-0.368929	-0.004796
C	-0.517972	1.027071	-0.004796
C	0.735528	1.696471	-0.004996
H	-1.478572	1.563771	-0.004696
C	1.817028	0.796971	-0.005096
S	1.245628	-0.866129	-0.004996
C	0.869628	3.193871	-0.004996
H	-0.124072	3.682071	-0.004896
H	1.419828	3.558571	-0.897496
H	1.420128	3.558671	0.887304
C	-1.526472	-1.318329	-0.004596
H	-1.526672	-1.318429	1.075404
H	-1.515972	-2.398329	-0.004496
H	-2.541072	-0.948029	-0.004496
H	2.892828	1.009571	-0.005196
$end

$rem
JOBTYPE		SP
EXCHANGE	HF
CORRELATION	pRIMP2
BASIS		cc-pvtz
METHOD		rimp2
AUX_BASIS	rimp2-cc-pvtz
SOLVENT_METHOD	PCM
PURECART	11111
SYMMETRY	false
MEM_TOTAL	110000
SCF_CONVERGENCE = 6
THRESH=10
$end

$solvent
dielectric 4.90
$end
--------------------------------------------------------------

             Standard Nuclear Orientation (Angstroms)
    I     Atom           X                Y                Z
 ----------------------------------------------------------------
    1      C      -0.4429720000    -0.3689290000    -0.0047960000
    2      C      -0.5179720000     1.0270710000    -0.0047960000
    3      C       0.7355280000     1.6964710000    -0.0049960000
    4      H      -1.4785720000     1.5637710000    -0.0046960000
    5      C       1.8170280000     0.7969710000    -0.0050960000
    6      S       1.2456280000    -0.8661290000    -0.0049960000
    7      C       0.8696280000     3.1938710000    -0.0049960000
    8      H      -0.1240720000     3.6820710000    -0.0048960000
    9      H       1.4198280000     3.5585710000    -0.8974960000
   10      H       1.4201280000     3.5586710000     0.8873040000
   11      C      -1.5264720000    -1.3183290000    -0.0045960000
   12      H      -1.5266720000    -1.3184290000     1.0754040000
   13      H      -1.5159720000    -2.3983290000    -0.0044960000
   14      H      -2.5410720000    -0.9480290000    -0.0044960000
   15      H       2.8928280000     1.0095710000    -0.0051960000
 ----------------------------------------------------------------

   10    -629.4250633597      7.03e-07  Convergence criterion met
 Total energy in the final basis set =     -629.4250633597
        RIMP2         total energy =      -630.6001681638 a.u.

                    Orbital Energies (a.u.)
 --------------------------------------------------------------

 Alpha MOs
 -- Occupied --
-91.9777 -11.2866 -11.2482 -11.2468 -11.2264 -11.2230 -11.2227  -8.9776
 -6.6586  -6.6580  -6.6574  -1.1602  -1.0564  -0.9975  -0.9419  -0.8828
 -0.7437  -0.7186  -0.6478  -0.5895  -0.5751  -0.5704  -0.5525  -0.5458
 -0.5077  -0.4935  -0.4655  -0.4564  -0.3384  -0.2882

          Ground-State Mulliken Net Atomic Charges

     Atom                 Charge (a.u.)
  ----------------------------------------
      1 C                     0.068818
      2 C                    -0.310067
      3 C                     0.049279
      4 H                     0.176396
      5 C                    -0.280980
      6 S                    -0.002299
      7 C                    -0.274763
      8 H                     0.101306
      9 H                     0.107279
     10 H                     0.107439
     11 C                    -0.384798
     12 H                     0.144510
     13 H                     0.163439
     14 H                     0.141945
     15 H                     0.192496
  ----------------------------------------
  Sum of atomic charges =     0.000000

                    Cartesian Multipole Moments
 -----------------------------------------------------------------
    Charge (ESU x 10^10)
                -0.0000
    Dipole Moment (Debye)
         X      -1.5276      Y       0.5305      Z       0.7488
       Tot       1.7820
    Quadrupole Moments (Debye-Ang)
        XX     -45.1765     XY       3.5144     YY     -45.0852
        XZ      -1.2020     YZ      -1.0142     ZZ     -54.4145

 Total job time:  159.14s(wall), 154.71s(cpu)
        *  Thank you very much for using Q-Chem.  Have a nice day.  *
