 Q-Chem 5.4, Q-Chem, Inc., Pleasanton, CA (2021)
 Q-Chem 5.4.0 for Intel X86 EM64T Linux

User input:
--------------------------------------------------------------
$molecule
0 1
C	-0.431163	-0.417597	0.015309
C	0.123937	0.243903	1.114709
C	1.013537	1.304103	0.792009
H	-0.113063	-0.038597	2.151409
C	1.155437	1.473103	-0.597191
S	0.174637	0.304303	-1.471491
C	1.712737	2.137303	1.829909
H	1.439137	1.811303	2.852009
H	1.449737	3.212103	1.741509
H	2.816937	2.064903	1.741509
C	-0.431163	-1.858297	0.015309
H	-1.494763	-1.857997	-0.172391
H	-0.288863	-2.562097	-0.791391
H	-0.595663	-2.377197	0.948009
H	1.765537	2.200203	-1.146291
$end

$rem
JOBTYPE		SP
EXCHANGE	HF
CORRELATION	pRIMP2
BASIS		cc-pvtz
METHOD		rimp2
AUX_BASIS	rimp2-cc-pvtz
SOLVENT_METHOD	PCM
PURECART	11111
SYMMETRY	false
MEM_TOTAL	110000
SCF_CONVERGENCE = 6
THRESH=10
$end

$solvent
dielectric 4.90
$end
--------------------------------------------------------------

             Standard Nuclear Orientation (Angstroms)
    I     Atom           X                Y                Z
 ----------------------------------------------------------------
    1      C      -0.4311630000    -0.4175970000     0.0153090000
    2      C       0.1239370000     0.2439030000     1.1147090000
    3      C       1.0135370000     1.3041030000     0.7920090000
    4      H      -0.1130630000    -0.0385970000     2.1514090000
    5      C       1.1554370000     1.4731030000    -0.5971910000
    6      S       0.1746370000     0.3043030000    -1.4714910000
    7      C       1.7127370000     2.1373030000     1.8299090000
    8      H       1.4391370000     1.8113030000     2.8520090000
    9      H       1.4497370000     3.2121030000     1.7415090000
   10      H       2.8169370000     2.0649030000     1.7415090000
   11      C      -0.4311630000    -1.8582970000     0.0153090000
   12      H      -1.4947630000    -1.8579970000    -0.1723910000
   13      H      -0.2888630000    -2.5620970000    -0.7913910000
   14      H      -0.5956630000    -2.3771970000     0.9480090000
   15      H       1.7655370000     2.2002030000    -1.1462910000
 ----------------------------------------------------------------

   10    -629.3820951897      6.19e-07  Convergence criterion met
 Total energy in the final basis set =     -629.3820951897
        RIMP2         total energy =      -630.5675200887 a.u.

                    Orbital Energies (a.u.)
 --------------------------------------------------------------

 Alpha MOs
 -- Occupied --
-91.9754 -11.2671 -11.2617 -11.2476 -11.2344 -11.2271 -11.2116  -8.9757
 -6.6567  -6.6560  -6.6555  -1.1637  -1.0540  -0.9962  -0.9414  -0.8823
 -0.7462  -0.7225  -0.6429  -0.5858  -0.5756  -0.5715  -0.5510  -0.5441
 -0.5137  -0.4913  -0.4568  -0.4429  -0.3370  -0.2860

          Ground-State Mulliken Net Atomic Charges

     Atom                 Charge (a.u.)
  ----------------------------------------
      1 C                    -0.015171
      2 C                    -0.236653
      3 C                     0.036352
      4 H                     0.181446
      5 C                    -0.245504
      6 S                     0.001748
      7 C                    -0.269942
      8 H                     0.101376
      9 H                     0.106992
     10 H                     0.105662
     11 C                    -0.381771
     12 H                     0.127530
     13 H                     0.161118
     14 H                     0.132607
     15 H                     0.194209
  ----------------------------------------
  Sum of atomic charges =     0.000000

                    Cartesian Multipole Moments
 -----------------------------------------------------------------
    Charge (ESU x 10^10)
                -0.0000
    Dipole Moment (Debye)
         X       0.4880      Y      -0.1941      Z       1.4544
       Tot       1.5463
    Quadrupole Moments (Debye-Ang)
        XX     -50.5793     XY       5.6974     YY     -46.2681
        XZ      -0.0573     YZ       0.4718     ZZ     -48.1709

 Total job time:  157.03s(wall), 154.75s(cpu)
        *  Thank you very much for using Q-Chem.  Have a nice day.  *
