 Q-Chem 5.4, Q-Chem, Inc., Pleasanton, CA (2021)
 Q-Chem 5.4.0 for Intel X86 EM64T Linux

User input:
--------------------------------------------------------------
$molecule
0 1
C	-0.342737	-0.485419	0.018379
C	0.089063	0.262481	1.117779
C	0.781063	1.460981	0.795079
H	-0.095337	-0.056919	2.154479
C	0.891363	1.652081	-0.594121
S	0.128463	0.330681	-1.468421
C	1.324963	2.402981	1.832979
H	1.112163	2.034381	2.855079
H	0.879263	3.415781	1.744579
H	2.424963	2.523381	1.744579
C	-0.342737	-1.926119	0.018379
H	0.351563	-1.926319	-0.808921
H	-0.970237	-2.629919	-0.508221
H	0.382863	-2.445019	0.627179
H	1.366063	2.474081	-1.143221
$end

$rem
JOBTYPE		SP
EXCHANGE	HF
CORRELATION	pRIMP2
BASIS		cc-pvtz
METHOD		rimp2
AUX_BASIS	rimp2-cc-pvtz
SOLVENT_METHOD	PCM
PURECART	11111
SYMMETRY	false
MEM_TOTAL	110000
SCF_CONVERGENCE = 6
THRESH=10
$end

$solvent
dielectric 4.90
$end
--------------------------------------------------------------

   10    -629.4041153552      6.07e-07  Convergence criterion met
 Total energy in the final basis set =     -629.4041153552
        RIMP2         total energy =      -630.5845369016 a.u.
 Total job time:  159.20s(wall), 158.63s(cpu)
        *  Thank you very much for using Q-Chem.  Have a nice day.  *
 Q-Chem 5.4, Q-Chem, Inc., Pleasanton, CA (2021)
 Q-Chem 5.4.0 for Intel X86 EM64T Linux

User input:
--------------------------------------------------------------
$molecule
0 1
C	-0.342737	-0.485419	0.018379
C	0.089063	0.262481	1.117779
C	0.781063	1.460981	0.795079
H	-0.095337	-0.056919	2.154479
C	0.891363	1.652081	-0.594121
S	0.128463	0.330681	-1.468421
C	1.324963	2.402981	1.832979
H	1.112163	2.034381	2.855079
H	0.879263	3.415781	1.744579
H	2.424963	2.523381	1.744579
C	-0.342737	-1.926119	0.018379
H	0.351563	-1.926319	-0.808921
H	-0.970237	-2.629919	-0.508221
H	0.382863	-2.445019	0.627179
H	1.366063	2.474081	-1.143221
$end

$rem
JOBTYPE		SP
EXCHANGE	HF
CORRELATION	pRIMP2
BASIS		cc-pvtz
METHOD		rimp2
AUX_BASIS	rimp2-cc-pvtz
SOLVENT_METHOD	PCM
PURECART	11111
SYMMETRY	false
MEM_TOTAL	110000
SCF_CONVERGENCE = 6
THRESH=10
$end

$solvent
dielectric 4.90
$end
--------------------------------------------------------------

             Standard Nuclear Orientation (Angstroms)
    I     Atom           X                Y                Z
 ----------------------------------------------------------------
    1      C      -0.3427370000    -0.4854190000     0.0183790000
    2      C       0.0890630000     0.2624810000     1.1177790000
    3      C       0.7810630000     1.4609810000     0.7950790000
    4      H      -0.0953370000    -0.0569190000     2.1544790000
    5      C       0.8913630000     1.6520810000    -0.5941210000
    6      S       0.1284630000     0.3306810000    -1.4684210000
    7      C       1.3249630000     2.4029810000     1.8329790000
    8      H       1.1121630000     2.0343810000     2.8550790000
    9      H       0.8792630000     3.4157810000     1.7445790000
   10      H       2.4249630000     2.5233810000     1.7445790000
   11      C      -0.3427370000    -1.9261190000     0.0183790000
   12      H       0.3515630000    -1.9263190000    -0.8089210000
   13      H      -0.9702370000    -2.6299190000    -0.5082210000
   14      H       0.3828630000    -2.4450190000     0.6271790000
   15      H       1.3660630000     2.4740810000    -1.1432210000
 ----------------------------------------------------------------

   10    -629.4041153552      6.07e-07  Convergence criterion met
 Total energy in the final basis set =     -629.4041153552
        RIMP2         total energy =      -630.5845369016 a.u.

                    Orbital Energies (a.u.)
 --------------------------------------------------------------

 Alpha MOs
 -- Occupied --
-91.9750 -11.2738 -11.2597 -11.2471 -11.2329 -11.2272 -11.2150  -8.9756
 -6.6566  -6.6559  -6.6554  -1.1643  -1.0561  -0.9948  -0.9441  -0.8805
 -0.7483  -0.7205  -0.6459  -0.5903  -0.5783  -0.5654  -0.5510  -0.5481
 -0.5100  -0.4878  -0.4627  -0.4460  -0.3388  -0.2957

          Ground-State Mulliken Net Atomic Charges

     Atom                 Charge (a.u.)
  ----------------------------------------
      1 C                     0.037160
      2 C                    -0.286458
      3 C                     0.050074
      4 H                     0.179638
      5 C                    -0.251129
      6 S                    -0.005593
      7 C                    -0.270467
      8 H                     0.101606
      9 H                     0.107667
     10 H                     0.106379
     11 C                    -0.376263
     12 H                     0.133412
     13 H                     0.142774
     14 H                     0.137616
     15 H                     0.193587
  ----------------------------------------
  Sum of atomic charges =     0.000000

                    Cartesian Multipole Moments
 -----------------------------------------------------------------
    Charge (ESU x 10^10)
                -0.0000
    Dipole Moment (Debye)
         X       1.2673      Y      -0.1562      Z       1.0579
       Tot       1.6582
    Quadrupole Moments (Debye-Ang)
        XX     -52.2648     XY       3.0150     YY     -44.6994
        XZ       0.4809     YZ       1.3261     ZZ     -48.5602

 Total job time:  158.83s(wall), 157.07s(cpu)
        *  Thank you very much for using Q-Chem.  Have a nice day.  *
