 Q-Chem 5.4, Q-Chem, Inc., Pleasanton, CA (2021)
 Q-Chem 5.4.0 for Intel X86 EM64T Linux

User input:
--------------------------------------------------------------
$molecule
0 1
C	-0.058025	-0.573729	0.010277
C	0.017275	0.286571	1.109677
C	0.137875	1.665271	0.786977
H	-0.014825	-0.080829	2.146377
C	0.157175	1.885071	-0.602223
S	0.024175	0.365071	-1.476523
C	0.232775	2.748871	1.824877
H	0.195675	2.324771	2.846977
H	-0.599225	3.478371	1.736477
H	1.178775	3.322871	1.736477
C	-0.058025	-2.014429	0.010277
H	-0.427525	-2.014129	1.025077
H	-0.827825	-2.718229	-0.269923
H	0.831975	-2.533329	0.334177
H	0.239875	2.830671	-1.151323
$end

$rem
JOBTYPE		SP
EXCHANGE	HF
CORRELATION	pRIMP2
BASIS		cc-pvtz
METHOD		rimp2
AUX_BASIS	rimp2-cc-pvtz
SOLVENT_METHOD	PCM
PURECART	11111
SYMMETRY	false
MEM_TOTAL	110000
SCF_CONVERGENCE = 6
THRESH=10
$end

$solvent
dielectric 4.90
$end
--------------------------------------------------------------

             Standard Nuclear Orientation (Angstroms)
    I     Atom           X                Y                Z
 ----------------------------------------------------------------
    1      C      -0.0580250000    -0.5737290000     0.0102770000
    2      C       0.0172750000     0.2865710000     1.1096770000
    3      C       0.1378750000     1.6652710000     0.7869770000
    4      H      -0.0148250000    -0.0808290000     2.1463770000
    5      C       0.1571750000     1.8850710000    -0.6022230000
    6      S       0.0241750000     0.3650710000    -1.4765230000
    7      C       0.2327750000     2.7488710000     1.8248770000
    8      H       0.1956750000     2.3247710000     2.8469770000
    9      H      -0.5992250000     3.4783710000     1.7364770000
   10      H       1.1787750000     3.3228710000     1.7364770000
   11      C      -0.0580250000    -2.0144290000     0.0102770000
   12      H      -0.4275250000    -2.0141290000     1.0250770000
   13      H      -0.8278250000    -2.7182290000    -0.2699230000
   14      H       0.8319750000    -2.5333290000     0.3341770000
   15      H       0.2398750000     2.8306710000    -1.1513230000
 ----------------------------------------------------------------

   10    -629.4245125633      5.10e-07  Convergence criterion met
 Total energy in the final basis set =     -629.4245125633
        RIMP2         total energy =      -630.6023874421 a.u.

                    Orbital Energies (a.u.)
 --------------------------------------------------------------

 Alpha MOs
 -- Occupied --
-91.9751 -11.2787 -11.2561 -11.2471 -11.2331 -11.2273 -11.2170  -8.9751
 -6.6561  -6.6555  -6.6550  -1.1609  -1.0542  -0.9996  -0.9396  -0.8844
 -0.7422  -0.7234  -0.6485  -0.5921  -0.5772  -0.5667  -0.5595  -0.5422
 -0.5101  -0.4862  -0.4673  -0.4392  -0.3377  -0.3020

          Ground-State Mulliken Net Atomic Charges

     Atom                 Charge (a.u.)
  ----------------------------------------
      1 C                     0.064755
      2 C                    -0.271975
      3 C                     0.032886
      4 H                     0.177366
      5 C                    -0.255241
      6 S                    -0.007224
      7 C                    -0.273761
      8 H                     0.101103
      9 H                     0.107119
     10 H                     0.107374
     11 C                    -0.376638
     12 H                     0.122586
     13 H                     0.153190
     14 H                     0.125578
     15 H                     0.192882
  ----------------------------------------
  Sum of atomic charges =     0.000000

                    Cartesian Multipole Moments
 -----------------------------------------------------------------
    Charge (ESU x 10^10)
                -0.0000
    Dipole Moment (Debye)
         X      -0.0866      Y      -0.1634      Z       2.1179
       Tot       2.1260
    Quadrupole Moments (Debye-Ang)
        XX     -53.6696     XY       1.4167     YY     -42.1925
        XZ       0.1946     YZ      -0.9673     ZZ     -48.9276

 Total job time:  161.66s(wall), 159.87s(cpu)
        *  Thank you very much for using Q-Chem.  Have a nice day.  *
