 Q-Chem 5.4, Q-Chem, Inc., Pleasanton, CA (2021)
 Q-Chem 5.4.0 for Intel X86 EM64T Linux

User input:
--------------------------------------------------------------
$molecule
0 1
C	-0.057738	-0.573729	0.019710
C	0.017562	0.286571	1.119110
C	0.138162	1.665271	0.796410
H	-0.014538	-0.080829	2.155810
C	0.157462	1.885071	-0.592790
S	0.024462	0.365071	-1.467090
C	0.233062	2.748871	1.834310
H	0.195962	2.324771	2.856410
H	-0.598938	3.478371	1.745910
H	1.179062	3.322871	1.745910
C	-0.057738	-2.014429	0.019710
H	-0.245138	-2.014129	-1.043890
H	0.749062	-2.718229	-0.122490
H	-0.990438	-2.533329	0.184210
H	0.240162	2.830671	-1.141890
$end

$rem
JOBTYPE		SP
EXCHANGE	HF
CORRELATION	pRIMP2
BASIS		cc-pvtz
METHOD		rimp2
AUX_BASIS	rimp2-cc-pvtz
SOLVENT_METHOD	PCM
PURECART	11111
SYMMETRY	false
MEM_TOTAL	110000
SCF_CONVERGENCE = 6
THRESH=10
$end

$solvent
dielectric 4.90
$end
--------------------------------------------------------------

             Standard Nuclear Orientation (Angstroms)
    I     Atom           X                Y                Z
 ----------------------------------------------------------------
    1      C      -0.0577380000    -0.5737290000     0.0197100000
    2      C       0.0175620000     0.2865710000     1.1191100000
    3      C       0.1381620000     1.6652710000     0.7964100000
    4      H      -0.0145380000    -0.0808290000     2.1558100000
    5      C       0.1574620000     1.8850710000    -0.5927900000
    6      S       0.0244620000     0.3650710000    -1.4670900000
    7      C       0.2330620000     2.7488710000     1.8343100000
    8      H       0.1959620000     2.3247710000     2.8564100000
    9      H      -0.5989380000     3.4783710000     1.7459100000
   10      H       1.1790620000     3.3228710000     1.7459100000
   11      C      -0.0577380000    -2.0144290000     0.0197100000
   12      H      -0.2451380000    -2.0141290000    -1.0438900000
   13      H       0.7490620000    -2.7182290000    -0.1224900000
   14      H      -0.9904380000    -2.5333290000     0.1842100000
   15      H       0.2401620000     2.8306710000    -1.1418900000
 ----------------------------------------------------------------

   10    -629.4200913113      5.42e-07  Convergence criterion met
 Total energy in the final basis set =     -629.4200913113
        RIMP2         total energy =      -630.5980673014 a.u.

                    Orbital Energies (a.u.)
 --------------------------------------------------------------

 Alpha MOs
 -- Occupied --
-91.9806 -11.2747 -11.2579 -11.2471 -11.2293 -11.2268 -11.2159  -8.9804
 -6.6613  -6.6608  -6.6602  -1.1609  -1.0550  -0.9954  -0.9463  -0.8817
 -0.7479  -0.7187  -0.6481  -0.5912  -0.5755  -0.5666  -0.5531  -0.5474
 -0.5092  -0.4852  -0.4650  -0.4443  -0.3383  -0.3037

          Ground-State Mulliken Net Atomic Charges

     Atom                 Charge (a.u.)
  ----------------------------------------
      1 C                     0.054550
      2 C                    -0.261644
      3 C                     0.038526
      4 H                     0.180128
      5 C                    -0.259015
      6 S                    -0.002250
      7 C                    -0.273324
      8 H                     0.101879
      9 H                     0.106815
     10 H                     0.106878
     11 C                    -0.368267
     12 H                     0.112024
     13 H                     0.139099
     14 H                     0.129343
     15 H                     0.195257
  ----------------------------------------
  Sum of atomic charges =     0.000000

                    Cartesian Multipole Moments
 -----------------------------------------------------------------
    Charge (ESU x 10^10)
                -0.0000
    Dipole Moment (Debye)
         X       0.0070      Y       0.0412      Z       0.8633
       Tot       0.8643
    Quadrupole Moments (Debye-Ang)
        XX     -53.6341     XY       0.9333     YY     -42.2564
        XZ      -0.0781     YZ       1.4889     ZZ     -48.8257

 Total job time:  158.40s(wall), 157.12s(cpu)
        *  Thank you very much for using Q-Chem.  Have a nice day.  *
