 Q-Chem 5.4, Q-Chem, Inc., Pleasanton, CA (2021)
 Q-Chem 5.4.0 for Intel X86 EM64T Linux

User input:
--------------------------------------------------------------
$molecule
0 1
C	-0.179134	-0.553189	0.018379
C	0.044366	0.281011	1.117779
C	0.402566	1.617711	0.795079
H	-0.051034	-0.075289	2.154479
C	0.459766	1.830811	-0.594121
S	0.064766	0.357111	-1.468421
C	0.684166	2.668411	1.832979
H	0.573966	2.257311	2.855079
H	-0.008434	3.531411	1.744579
H	1.715466	3.069411	1.744579
C	-0.179134	-1.993889	0.018379
H	0.515166	-1.994089	-0.808921
H	-0.806634	-2.697689	-0.508221
H	0.546466	-2.512789	0.627179
H	0.705466	2.747711	-1.143221
$end

$rem
JOBTYPE		SP
EXCHANGE	HF
CORRELATION	pRIMP2
BASIS		cc-pvtz
METHOD		rimp2
AUX_BASIS	rimp2-cc-pvtz
SOLVENT_METHOD	PCM
PURECART	11111
SYMMETRY	false
MEM_TOTAL	110000
SCF_CONVERGENCE = 6
THRESH=10
$end

$solvent
dielectric 4.90
$end
--------------------------------------------------------------

             Standard Nuclear Orientation (Angstroms)
    I     Atom           X                Y                Z
 ----------------------------------------------------------------
    1      C      -0.1791340000    -0.5531890000     0.0183790000
    2      C       0.0443660000     0.2810110000     1.1177790000
    3      C       0.4025660000     1.6177110000     0.7950790000
    4      H      -0.0510340000    -0.0752890000     2.1544790000
    5      C       0.4597660000     1.8308110000    -0.5941210000
    6      S       0.0647660000     0.3571110000    -1.4684210000
    7      C       0.6841660000     2.6684110000     1.8329790000
    8      H       0.5739660000     2.2573110000     2.8550790000
    9      H      -0.0084340000     3.5314110000     1.7445790000
   10      H       1.7154660000     3.0694110000     1.7445790000
   11      C      -0.1791340000    -1.9938890000     0.0183790000
   12      H       0.5151660000    -1.9940890000    -0.8089210000
   13      H      -0.8066340000    -2.6976890000    -0.5082210000
   14      H       0.5464660000    -2.5127890000     0.6271790000
   15      H       0.7054660000     2.7477110000    -1.1432210000
 ----------------------------------------------------------------

   10    -629.4187962829      6.20e-07  Convergence criterion met
 Total energy in the final basis set =     -629.4187962829
        RIMP2         total energy =      -630.5961039747 a.u.

                    Orbital Energies (a.u.)
 --------------------------------------------------------------

 Alpha MOs
 -- Occupied --
-91.9773 -11.2786 -11.2555 -11.2469 -11.2289 -11.2268 -11.2177  -8.9775
 -6.6584  -6.6579  -6.6573  -1.1617  -1.0558  -0.9955  -0.9448  -0.8815
 -0.7470  -0.7190  -0.6473  -0.5911  -0.5767  -0.5662  -0.5514  -0.5478
 -0.5083  -0.4896  -0.4643  -0.4493  -0.3391  -0.2966

          Ground-State Mulliken Net Atomic Charges

     Atom                 Charge (a.u.)
  ----------------------------------------
      1 C                     0.057469
      2 C                    -0.296876
      3 C                     0.052645
      4 H                     0.180274
      5 C                    -0.262726
      6 S                    -0.004131
      7 C                    -0.272046
      8 H                     0.101532
      9 H                     0.107426
     10 H                     0.106939
     11 C                    -0.374505
     12 H                     0.126519
     13 H                     0.147842
     14 H                     0.135904
     15 H                     0.193734
  ----------------------------------------
  Sum of atomic charges =     0.000000

                    Cartesian Multipole Moments
 -----------------------------------------------------------------
    Charge (ESU x 10^10)
                -0.0000
    Dipole Moment (Debye)
         X       0.8171      Y      -0.2542      Z       0.9840
       Tot       1.3041
    Quadrupole Moments (Debye-Ang)
        XX     -53.6014     XY       1.3392     YY     -42.7066
        XZ       0.4350     YZ       1.4009     ZZ     -48.7021

 Total job time:  156.23s(wall), 154.75s(cpu)
        *  Thank you very much for using Q-Chem.  Have a nice day.  *
