 Q-Chem 5.4, Q-Chem, Inc., Pleasanton, CA (2021)
 Q-Chem 5.4.0 for Intel X86 EM64T Linux

User input:
--------------------------------------------------------------
$molecule
0 1
C	-0.254509	-0.537788	0.014457
C	0.040891	0.273712	1.113857
C	0.514191	1.574112	0.791157
H	-0.085209	-0.072788	2.150557
C	0.589691	1.781512	-0.598043
S	0.067791	0.347812	-1.472343
C	0.886291	2.596312	1.829057
H	0.740691	2.196312	2.851157
H	0.271491	3.516312	1.740657
H	1.948691	2.905912	1.740657
C	-0.004309	-1.956588	0.014457
H	1.059291	-1.769288	0.014557
H	0.117891	-2.649688	-0.804743
H	0.085791	-2.467688	0.961557
H	0.914391	2.673512	-1.147143
$end

$rem
JOBTYPE		SP
EXCHANGE	HF
CORRELATION	pRIMP2
BASIS		cc-pvtz
METHOD		rimp2
AUX_BASIS	rimp2-cc-pvtz
SOLVENT_METHOD	PCM
PURECART	11111
SYMMETRY	false
MEM_TOTAL	110000
SCF_CONVERGENCE = 6
THRESH=10
$end

$solvent
dielectric 4.90
$end
--------------------------------------------------------------

             Standard Nuclear Orientation (Angstroms)
    I     Atom           X                Y                Z
 ----------------------------------------------------------------
    1      C      -0.2545090000    -0.5377880000     0.0144570000
    2      C       0.0408910000     0.2737120000     1.1138570000
    3      C       0.5141910000     1.5741120000     0.7911570000
    4      H      -0.0852090000    -0.0727880000     2.1505570000
    5      C       0.5896910000     1.7815120000    -0.5980430000
    6      S       0.0677910000     0.3478120000    -1.4723430000
    7      C       0.8862910000     2.5963120000     1.8290570000
    8      H       0.7406910000     2.1963120000     2.8511570000
    9      H       0.2714910000     3.5163120000     1.7406570000
   10      H       1.9486910000     2.9059120000     1.7406570000
   11      C      -0.0043090000    -1.9565880000     0.0144570000
   12      H       1.0592910000    -1.7692880000     0.0145570000
   13      H       0.1178910000    -2.6496880000    -0.8047430000
   14      H       0.0857910000    -2.4676880000     0.9615570000
   15      H       0.9143910000     2.6735120000    -1.1471430000
 ----------------------------------------------------------------

   10    -629.4092796154      6.55e-07  Convergence criterion met
 Total energy in the final basis set =     -629.4092796154
        RIMP2         total energy =      -630.5884099864 a.u.

                    Orbital Energies (a.u.)
 --------------------------------------------------------------

 Alpha MOs
 -- Occupied --
-91.9767 -11.2819 -11.2536 -11.2482 -11.2271 -11.2263 -11.2213  -8.9769
 -6.6578  -6.6573  -6.6567  -1.1643  -1.0569  -0.9970  -0.9401  -0.8820
 -0.7451  -0.7208  -0.6464  -0.5884  -0.5804  -0.5682  -0.5523  -0.5459
 -0.5079  -0.4928  -0.4623  -0.4561  -0.3390  -0.2876

          Ground-State Mulliken Net Atomic Charges

     Atom                 Charge (a.u.)
  ----------------------------------------
      1 C                     0.047221
      2 C                    -0.306679
      3 C                     0.056881
      4 H                     0.175590
      5 C                    -0.274026
      6 S                    -0.000544
      7 C                    -0.270168
      8 H                     0.101674
      9 H                     0.107778
     10 H                     0.106547
     11 C                    -0.373455
     12 H                     0.149326
     13 H                     0.155241
     14 H                     0.131904
     15 H                     0.192710
  ----------------------------------------
  Sum of atomic charges =     0.000000

                    Cartesian Multipole Moments
 -----------------------------------------------------------------
    Charge (ESU x 10^10)
                -0.0000
    Dipole Moment (Debye)
         X       1.4356      Y      -0.3769      Z       1.4752
       Tot       2.0926
    Quadrupole Moments (Debye-Ang)
        XX     -53.4629     XY       0.9613     YY     -43.6296
        XZ       0.1254     YZ       0.3530     ZZ     -48.5073

 Total job time:  181.40s(wall), 160.48s(cpu)
        *  Thank you very much for using Q-Chem.  Have a nice day.  *
