 Q-Chem 5.4, Q-Chem, Inc., Pleasanton, CA (2021)
 Q-Chem 5.4.0 for Intel X86 EM64T Linux

User input:
--------------------------------------------------------------
$molecule
0 1
C	-0.063059	-0.573727	0.012108
C	0.012241	0.286573	1.111508
C	0.132841	1.665273	0.788808
H	-0.019859	-0.080827	2.148208
C	0.152141	1.885073	-0.600392
S	0.019141	0.365073	-1.474692
C	0.227741	2.748873	1.826708
H	0.190641	2.324773	2.848808
H	-0.604259	3.478373	1.738308
H	1.173741	3.322873	1.738308
C	-0.063059	-2.014427	0.012108
H	0.872141	-2.014627	0.552208
H	0.346541	-2.718227	-0.697292
H	-0.536659	-2.533327	0.832308
H	0.234841	2.830673	-1.149492
$end

$rem
JOBTYPE		SP
EXCHANGE	HF
CORRELATION	pRIMP2
BASIS		cc-pvtz
METHOD		rimp2
AUX_BASIS	rimp2-cc-pvtz
SOLVENT_METHOD	PCM
PURECART	11111
SYMMETRY	false
MEM_TOTAL	110000
SCF_CONVERGENCE = 6
THRESH=10
$end

$solvent
dielectric 4.90
$end
--------------------------------------------------------------

             Standard Nuclear Orientation (Angstroms)
    I     Atom           X                Y                Z
 ----------------------------------------------------------------
    1      C      -0.0630590000    -0.5737270000     0.0121080000
    2      C       0.0122410000     0.2865730000     1.1115080000
    3      C       0.1328410000     1.6652730000     0.7888080000
    4      H      -0.0198590000    -0.0808270000     2.1482080000
    5      C       0.1521410000     1.8850730000    -0.6003920000
    6      S       0.0191410000     0.3650730000    -1.4746920000
    7      C       0.2277410000     2.7488730000     1.8267080000
    8      H       0.1906410000     2.3247730000     2.8488080000
    9      H      -0.6042590000     3.4783730000     1.7383080000
   10      H       1.1737410000     3.3228730000     1.7383080000
   11      C      -0.0630590000    -2.0144270000     0.0121080000
   12      H       0.8721410000    -2.0146270000     0.5522080000
   13      H       0.3465410000    -2.7182270000    -0.6972920000
   14      H      -0.5366590000    -2.5333270000     0.8323080000
   15      H       0.2348410000     2.8306730000    -1.1494920000
 ----------------------------------------------------------------

   10    -629.4235637510      6.48e-07  Convergence criterion met
 Total energy in the final basis set =     -629.4235637510
        RIMP2         total energy =      -630.6000002457 a.u.

                    Orbital Energies (a.u.)
 --------------------------------------------------------------

 Alpha MOs
 -- Occupied --
-91.9778 -11.2851 -11.2491 -11.2473 -11.2267 -11.2249 -11.2207  -8.9775
 -6.6585  -6.6580  -6.6574  -1.1604  -1.0557  -0.9985  -0.9402  -0.8834
 -0.7425  -0.7198  -0.6481  -0.5907  -0.5734  -0.5713  -0.5566  -0.5440
 -0.5086  -0.4891  -0.4664  -0.4528  -0.3374  -0.2908

          Ground-State Mulliken Net Atomic Charges

     Atom                 Charge (a.u.)
  ----------------------------------------
      1 C                     0.071301
      2 C                    -0.294571
      3 C                     0.042525
      4 H                     0.175512
      5 C                    -0.276557
      6 S                    -0.001947
      7 C                    -0.274764
      8 H                     0.101139
      9 H                     0.107319
     10 H                     0.107278
     11 C                    -0.391088
     12 H                     0.142784
     13 H                     0.160984
     14 H                     0.138184
     15 H                     0.191900
  ----------------------------------------
  Sum of atomic charges =     0.000000

                    Cartesian Multipole Moments
 -----------------------------------------------------------------
    Charge (ESU x 10^10)
                -0.0000
    Dipole Moment (Debye)
         X       0.7245      Y      -0.6686      Z       1.7764
       Tot       2.0316
    Quadrupole Moments (Debye-Ang)
        XX     -54.2193     XY      -0.6667     YY     -41.9668
        XZ      -0.2145     YZ      -0.2690     ZZ     -48.6572

 Total job time:  162.72s(wall), 159.78s(cpu)
        *  Thank you very much for using Q-Chem.  Have a nice day.  *
