 Q-Chem 5.4, Q-Chem, Inc., Pleasanton, CA (2021)
 Q-Chem 5.4.0 for Intel X86 EM64T Linux

User input:
--------------------------------------------------------------
$molecule
0 1
C	-0.054267	-0.573727	0.014756
C	0.021033	0.286573	1.114156
C	0.141633	1.665273	0.791456
H	-0.011067	-0.080827	2.150856
C	0.160933	1.885073	-0.597744
S	0.027933	0.365073	-1.472044
C	0.236533	2.748873	1.829356
H	0.199433	2.324773	2.851456
H	-0.595467	3.478373	1.740956
H	1.182533	3.322873	1.740956
C	-0.054267	-2.014427	0.014756
H	-1.117867	-2.014627	0.202156
H	0.087933	-2.718227	0.821556
H	-0.218767	-2.533327	-0.917944
H	0.243633	2.830673	-1.146844
$end

$rem
JOBTYPE		SP
EXCHANGE	HF
CORRELATION	pRIMP2
BASIS		cc-pvtz
METHOD		rimp2
AUX_BASIS	rimp2-cc-pvtz
SOLVENT_METHOD	PCM
PURECART	11111
SYMMETRY	false
MEM_TOTAL	110000
SCF_CONVERGENCE = 6
THRESH=10
$end

$solvent
dielectric 4.90
$end
--------------------------------------------------------------

             Standard Nuclear Orientation (Angstroms)
    I     Atom           X                Y                Z
 ----------------------------------------------------------------
    1      C      -0.0542670000    -0.5737270000     0.0147560000
    2      C       0.0210330000     0.2865730000     1.1141560000
    3      C       0.1416330000     1.6652730000     0.7914560000
    4      H      -0.0110670000    -0.0808270000     2.1508560000
    5      C       0.1609330000     1.8850730000    -0.5977440000
    6      S       0.0279330000     0.3650730000    -1.4720440000
    7      C       0.2365330000     2.7488730000     1.8293560000
    8      H       0.1994330000     2.3247730000     2.8514560000
    9      H      -0.5954670000     3.4783730000     1.7409560000
   10      H       1.1825330000     3.3228730000     1.7409560000
   11      C      -0.0542670000    -2.0144270000     0.0147560000
   12      H      -1.1178670000    -2.0146270000     0.2021560000
   13      H       0.0879330000    -2.7182270000     0.8215560000
   14      H      -0.2187670000    -2.5333270000    -0.9179440000
   15      H       0.2436330000     2.8306730000    -1.1468440000
 ----------------------------------------------------------------

   10    -629.4230029670      6.93e-07  Convergence criterion met
 Total energy in the final basis set =     -629.4230029670
        RIMP2         total energy =      -630.5986463741 a.u.

                    Orbital Energies (a.u.)
 --------------------------------------------------------------

 Alpha MOs
 -- Occupied --
-91.9789 -11.2851 -11.2486 -11.2469 -11.2263 -11.2225 -11.2216  -8.9786
 -6.6596  -6.6591  -6.6585  -1.1599  -1.0560  -0.9974  -0.9420  -0.8828
 -0.7434  -0.7188  -0.6496  -0.5865  -0.5733  -0.5680  -0.5558  -0.5457
 -0.5077  -0.4944  -0.4643  -0.4567  -0.3381  -0.2884

          Ground-State Mulliken Net Atomic Charges

     Atom                 Charge (a.u.)
  ----------------------------------------
      1 C                     0.067304
      2 C                    -0.312530
      3 C                     0.051981
      4 H                     0.174712
      5 C                    -0.281615
      6 S                     0.004669
      7 C                    -0.274615
      8 H                     0.101328
      9 H                     0.107290
     10 H                     0.107244
     11 C                    -0.383459
     12 H                     0.142919
     13 H                     0.164167
     14 H                     0.138029
     15 H                     0.192575
  ----------------------------------------
  Sum of atomic charges =     0.000000

                    Cartesian Multipole Moments
 -----------------------------------------------------------------
    Charge (ESU x 10^10)
                -0.0000
    Dipole Moment (Debye)
         X      -0.6447      Y      -0.7319      Z       1.5053
       Tot       1.7936
    Quadrupole Moments (Debye-Ang)
        XX     -54.2454     XY       2.3157     YY     -41.8292
        XZ       0.0834     YZ      -0.0534     ZZ     -48.5551

 Total job time:  161.24s(wall), 159.62s(cpu)
        *  Thank you very much for using Q-Chem.  Have a nice day.  *
