 Q-Chem 5.4, Q-Chem, Inc., Pleasanton, CA (2021)
 Q-Chem 5.4.0 for Intel X86 EM64T Linux

User input:
--------------------------------------------------------------
$molecule
0 1
C	-0.343932	-0.485421	0.013912
C	0.087868	0.262479	1.113312
C	0.779868	1.460979	0.790612
H	-0.096532	-0.056921	2.150012
C	0.890168	1.652079	-0.598588
S	0.127268	0.330679	-1.472888
C	1.323768	2.402979	1.828512
H	1.110968	2.034379	2.850612
H	0.878068	3.415779	1.740112
H	2.423768	2.523379	1.740112
C	-0.343932	-1.926121	0.013912
H	0.670868	-1.925821	0.383412
H	-0.624132	-2.629921	0.783712
H	-0.020032	-2.445021	-0.876088
H	1.364868	2.474079	-1.147688
$end

$rem
JOBTYPE		SP
EXCHANGE	HF
CORRELATION	pRIMP2
BASIS		cc-pvtz
METHOD		rimp2
AUX_BASIS	rimp2-cc-pvtz
SOLVENT_METHOD	PCM
PURECART	11111
SYMMETRY	false
MEM_TOTAL	110000
SCF_CONVERGENCE = 6
THRESH=10
$end

$solvent
dielectric 4.90
$end
--------------------------------------------------------------

   10    -629.4057891871      5.98e-07  Convergence criterion met
 Total energy in the final basis set =     -629.4057891871
        RIMP2         total energy =      -630.5859021692 a.u.
 Total job time:  158.74s(wall), 157.98s(cpu)
        *  Thank you very much for using Q-Chem.  Have a nice day.  *
 Q-Chem 5.4, Q-Chem, Inc., Pleasanton, CA (2021)
 Q-Chem 5.4.0 for Intel X86 EM64T Linux

User input:
--------------------------------------------------------------
$molecule
0 1
C	-0.343932	-0.485421	0.013912
C	0.087868	0.262479	1.113312
C	0.779868	1.460979	0.790612
H	-0.096532	-0.056921	2.150012
C	0.890168	1.652079	-0.598588
S	0.127268	0.330679	-1.472888
C	1.323768	2.402979	1.828512
H	1.110968	2.034379	2.850612
H	0.878068	3.415779	1.740112
H	2.423768	2.523379	1.740112
C	-0.343932	-1.926121	0.013912
H	0.670868	-1.925821	0.383412
H	-0.624132	-2.629921	0.783712
H	-0.020032	-2.445021	-0.876088
H	1.364868	2.474079	-1.147688
$end

$rem
JOBTYPE		SP
EXCHANGE	HF
CORRELATION	pRIMP2
BASIS		cc-pvtz
METHOD		rimp2
AUX_BASIS	rimp2-cc-pvtz
SOLVENT_METHOD	PCM
PURECART	11111
SYMMETRY	false
MEM_TOTAL	110000
SCF_CONVERGENCE = 6
THRESH=10
$end

$solvent
dielectric 4.90
$end
--------------------------------------------------------------

             Standard Nuclear Orientation (Angstroms)
    I     Atom           X                Y                Z
 ----------------------------------------------------------------
    1      C      -0.3439320000    -0.4854210000     0.0139120000
    2      C       0.0878680000     0.2624790000     1.1133120000
    3      C       0.7798680000     1.4609790000     0.7906120000
    4      H      -0.0965320000    -0.0569210000     2.1500120000
    5      C       0.8901680000     1.6520790000    -0.5985880000
    6      S       0.1272680000     0.3306790000    -1.4728880000
    7      C       1.3237680000     2.4029790000     1.8285120000
    8      H       1.1109680000     2.0343790000     2.8506120000
    9      H       0.8780680000     3.4157790000     1.7401120000
   10      H       2.4237680000     2.5233790000     1.7401120000
   11      C      -0.3439320000    -1.9261210000     0.0139120000
   12      H       0.6708680000    -1.9258210000     0.3834120000
   13      H      -0.6241320000    -2.6299210000     0.7837120000
   14      H      -0.0200320000    -2.4450210000    -0.8760880000
   15      H       1.3648680000     2.4740790000    -1.1476880000
 ----------------------------------------------------------------

   10    -629.4057891871      5.98e-07  Convergence criterion met
 Total energy in the final basis set =     -629.4057891871
        RIMP2         total energy =      -630.5859021692 a.u.

                    Orbital Energies (a.u.)
 --------------------------------------------------------------

 Alpha MOs
 -- Occupied --
-91.9794 -11.2804 -11.2534 -11.2480 -11.2270 -11.2251 -11.2191  -8.9792
 -6.6601  -6.6596  -6.6590  -1.1641  -1.0562  -0.9974  -0.9394  -0.8821
 -0.7442  -0.7213  -0.6480  -0.5878  -0.5760  -0.5674  -0.5557  -0.5451
 -0.5078  -0.4885  -0.4638  -0.4574  -0.3373  -0.2880

          Ground-State Mulliken Net Atomic Charges

     Atom                 Charge (a.u.)
  ----------------------------------------
      1 C                     0.029646
      2 C                    -0.274991
      3 C                     0.044203
      4 H                     0.173728
      5 C                    -0.272590
      6 S                     0.008574
      7 C                    -0.270963
      8 H                     0.101615
      9 H                     0.107634
     10 H                     0.106014
     11 C                    -0.383794
     12 H                     0.151151
     13 H                     0.151281
     14 H                     0.135222
     15 H                     0.193269
  ----------------------------------------
  Sum of atomic charges =     0.000000

                    Cartesian Multipole Moments
 -----------------------------------------------------------------
    Charge (ESU x 10^10)
                -0.0000
    Dipole Moment (Debye)
         X       1.3193      Y      -0.5506      Z       1.6502
       Tot       2.1833
    Quadrupole Moments (Debye-Ang)
        XX     -52.7665     XY       2.6117     YY     -44.4914
        XZ      -0.0449     YZ      -0.4322     ZZ     -48.3911

 Total job time:  158.08s(wall), 156.29s(cpu)
        *  Thank you very much for using Q-Chem.  Have a nice day.  *
