 Q-Chem 5.4, Q-Chem, Inc., Pleasanton, CA (2021)
 Q-Chem 5.4.0 for Intel X86 EM64T Linux

User input:
--------------------------------------------------------------
$molecule
0 1
C	-0.435466	-0.417597	0.019883
C	0.119634	0.243903	1.119283
C	1.009234	1.304103	0.796583
H	-0.117366	-0.038597	2.155983
C	1.151134	1.473103	-0.592617
S	0.170334	0.304303	-1.466917
C	1.708434	2.137303	1.834483
H	1.434834	1.811303	2.856583
H	1.445434	3.212103	1.746083
H	2.812634	2.064903	1.746083
C	-0.435466	-1.858297	0.019883
H	-0.435366	-1.857997	-1.060117
H	0.383734	-2.562097	0.019983
H	-1.382566	-2.377197	0.019883
H	1.761234	2.200203	-1.141717
$end

$rem
JOBTYPE		SP
EXCHANGE	HF
CORRELATION	pRIMP2
BASIS		cc-pvtz
METHOD		rimp2
AUX_BASIS	rimp2-cc-pvtz
SOLVENT_METHOD	PCM
PURECART	11111
SYMMETRY	false
MEM_TOTAL	110000
SCF_CONVERGENCE = 6
THRESH=10
$end

$solvent
dielectric 4.90
$end
--------------------------------------------------------------

             Standard Nuclear Orientation (Angstroms)
    I     Atom           X                Y                Z
 ----------------------------------------------------------------
    1      C      -0.4354660000    -0.4175970000     0.0198830000
    2      C       0.1196340000     0.2439030000     1.1192830000
    3      C       1.0092340000     1.3041030000     0.7965830000
    4      H      -0.1173660000    -0.0385970000     2.1559830000
    5      C       1.1511340000     1.4731030000    -0.5926170000
    6      S       0.1703340000     0.3043030000    -1.4669170000
    7      C       1.7084340000     2.1373030000     1.8344830000
    8      H       1.4348340000     1.8113030000     2.8565830000
    9      H       1.4454340000     3.2121030000     1.7460830000
   10      H       2.8126340000     2.0649030000     1.7460830000
   11      C      -0.4354660000    -1.8582970000     0.0198830000
   12      H      -0.4353660000    -1.8579970000    -1.0601170000
   13      H       0.3837340000    -2.5620970000     0.0199830000
   14      H      -1.3825660000    -2.3771970000     0.0198830000
   15      H       1.7612340000     2.2002030000    -1.1417170000
 ----------------------------------------------------------------

   10    -629.3850260555      7.24e-07  Convergence criterion met
 Total energy in the final basis set =     -629.3850260555
        RIMP2         total energy =      -630.5701193698 a.u.

                    Orbital Energies (a.u.)
 --------------------------------------------------------------

 Alpha MOs
 -- Occupied --
-91.9772 -11.2696 -11.2588 -11.2474 -11.2399 -11.2276 -11.2099  -8.9777
 -6.6586  -6.6579  -6.6574  -1.1661  -1.0552  -0.9943  -0.9454  -0.8800
 -0.7512  -0.7226  -0.6456  -0.5875  -0.5784  -0.5690  -0.5511  -0.5473
 -0.5156  -0.4679  -0.4641  -0.4400  -0.3351  -0.3051

          Ground-State Mulliken Net Atomic Charges

     Atom                 Charge (a.u.)
  ----------------------------------------
      1 C                    -0.030296
      2 C                    -0.213155
      3 C                     0.029500
      4 H                     0.179841
      5 C                    -0.228240
      6 S                     0.000872
      7 C                    -0.270341
      8 H                     0.101996
      9 H                     0.106853
     10 H                     0.105196
     11 C                    -0.356166
     12 H                     0.113800
     13 H                     0.146852
     14 H                     0.116647
     15 H                     0.196642
  ----------------------------------------
  Sum of atomic charges =     0.000000

                    Cartesian Multipole Moments
 -----------------------------------------------------------------
    Charge (ESU x 10^10)
                -0.0000
    Dipole Moment (Debye)
         X       1.3961      Y       0.3292      Z       1.0117
       Tot       1.7552
    Quadrupole Moments (Debye-Ang)
        XX     -50.4312     XY       4.3040     YY     -46.5927
        XZ       0.1400     YZ       1.1909     ZZ     -48.4279

 Total job time:  159.64s(wall), 157.00s(cpu)
        *  Thank you very much for using Q-Chem.  Have a nice day.  *
