 Q-Chem 5.4, Q-Chem, Inc., Pleasanton, CA (2021)
 Q-Chem 5.4.0 for Intel X86 EM64T Linux

User input:
--------------------------------------------------------------
$molecule
0 1
C	-0.179937	-0.553191	0.017231
C	0.043563	0.281009	1.116631
C	0.401763	1.617709	0.793931
H	-0.051837	-0.075291	2.153331
C	0.458963	1.830809	-0.595269
S	0.063963	0.357109	-1.469569
C	0.683363	2.668409	1.831831
H	0.573163	2.257309	2.853931
H	-0.009237	3.531409	1.743431
H	1.714663	3.069409	1.743431
C	-0.179937	-1.993891	0.017231
H	0.834963	-1.993591	-0.352069
H	0.100163	-2.697691	0.787031
H	-0.503837	-2.512791	-0.872769
H	0.704663	2.747709	-1.144369
$end

$rem
JOBTYPE		SP
EXCHANGE	HF
CORRELATION	pRIMP2
BASIS		cc-pvtz
METHOD		rimp2
AUX_BASIS	rimp2-cc-pvtz
SOLVENT_METHOD	PCM
PURECART	11111
SYMMETRY	false
MEM_TOTAL	110000
SCF_CONVERGENCE = 6
THRESH=10
$end

$solvent
dielectric 4.90
$end
--------------------------------------------------------------

             Standard Nuclear Orientation (Angstroms)
    I     Atom           X                Y                Z
 ----------------------------------------------------------------
    1      C      -0.1799370000    -0.5531910000     0.0172310000
    2      C       0.0435630000     0.2810090000     1.1166310000
    3      C       0.4017630000     1.6177090000     0.7939310000
    4      H      -0.0518370000    -0.0752910000     2.1533310000
    5      C       0.4589630000     1.8308090000    -0.5952690000
    6      S       0.0639630000     0.3571090000    -1.4695690000
    7      C       0.6833630000     2.6684090000     1.8318310000
    8      H       0.5731630000     2.2573090000     2.8539310000
    9      H      -0.0092370000     3.5314090000     1.7434310000
   10      H       1.7146630000     3.0694090000     1.7434310000
   11      C      -0.1799370000    -1.9938910000     0.0172310000
   12      H       0.8349630000    -1.9935910000    -0.3520690000
   13      H       0.1001630000    -2.6976910000     0.7870310000
   14      H      -0.5038370000    -2.5127910000    -0.8727690000
   15      H       0.7046630000     2.7477090000    -1.1443690000
 ----------------------------------------------------------------

   10    -629.4213256557      7.18e-07  Convergence criterion met
 Total energy in the final basis set =     -629.4213256557
        RIMP2         total energy =      -630.5969668973 a.u.

                    Orbital Energies (a.u.)
 --------------------------------------------------------------

 Alpha MOs
 -- Occupied --
-91.9779 -11.2838 -11.2511 -11.2469 -11.2265 -11.2239 -11.2218  -8.9779
 -6.6590  -6.6584  -6.6578  -1.1615  -1.0567  -0.9961  -0.9433  -0.8817
 -0.7452  -0.7186  -0.6494  -0.5870  -0.5776  -0.5652  -0.5526  -0.5476
 -0.5073  -0.4940  -0.4656  -0.4557  -0.3396  -0.2897

          Ground-State Mulliken Net Atomic Charges

     Atom                 Charge (a.u.)
  ----------------------------------------
      1 C                     0.064939
      2 C                    -0.327019
      3 C                     0.062630
      4 H                     0.177337
      5 C                    -0.278450
      6 S                    -0.001397
      7 C                    -0.272408
      8 H                     0.101450
      9 H                     0.107432
     10 H                     0.107215
     11 C                    -0.373862
     12 H                     0.142143
     13 H                     0.162571
     14 H                     0.134274
     15 H                     0.193145
  ----------------------------------------
  Sum of atomic charges =     0.000000

                    Cartesian Multipole Moments
 -----------------------------------------------------------------
    Charge (ESU x 10^10)
                -0.0000
    Dipole Moment (Debye)
         X       0.9832      Y      -0.6349      Z       1.1855
       Tot       1.6659
    Quadrupole Moments (Debye-Ang)
        XX     -54.0002     XY       0.8036     YY     -42.3566
        XZ       0.3237     YZ       0.6465     ZZ     -48.6453

 Total job time:  156.64s(wall), 155.01s(cpu)
        *  Thank you very much for using Q-Chem.  Have a nice day.  *
