 Q-Chem 5.4, Q-Chem, Inc., Pleasanton, CA (2021)
 Q-Chem 5.4.0 for Intel X86 EM64T Linux

User input:
--------------------------------------------------------------
$molecule
0 1
C	-0.291184	-0.512746	0.013103
C	0.073816	0.269954	1.112503
C	0.658716	1.524154	0.789803
H	-0.082084	-0.064346	2.149203
C	0.752016	1.724154	-0.599397
S	0.107116	0.341354	-1.473697
C	1.118416	2.509954	1.827703
H	0.938516	2.124254	2.849803
H	0.586116	3.480154	1.739303
H	2.203716	2.725854	1.739303
C	-0.291184	-1.953446	0.013103
H	0.644016	-1.953146	0.553203
H	-0.700784	-2.657246	0.722503
H	0.182416	-2.472346	-0.807097
H	1.153116	2.584454	-1.148497
$end

$rem
JOBTYPE		SP
EXCHANGE	HF
CORRELATION	pRIMP2
BASIS		cc-pvtz
METHOD		rimp2
AUX_BASIS	rimp2-cc-pvtz
SOLVENT_METHOD	PCM
PURECART	11111
SYMMETRY	false
MEM_TOTAL	110000
SCF_CONVERGENCE = 6
THRESH=10
$end

$solvent
dielectric 4.90
$end
--------------------------------------------------------------

             Standard Nuclear Orientation (Angstroms)
    I     Atom           X                Y                Z
 ----------------------------------------------------------------
    1      C      -0.2911840000    -0.5127460000     0.0131030000
    2      C       0.0738160000     0.2699540000     1.1125030000
    3      C       0.6587160000     1.5241540000     0.7898030000
    4      H      -0.0820840000    -0.0643460000     2.1492030000
    5      C       0.7520160000     1.7241540000    -0.5993970000
    6      S       0.1071160000     0.3413540000    -1.4736970000
    7      C       1.1184160000     2.5099540000     1.8277030000
    8      H       0.9385160000     2.1242540000     2.8498030000
    9      H       0.5861160000     3.4801540000     1.7393030000
   10      H       2.2037160000     2.7258540000     1.7393030000
   11      C      -0.2911840000    -1.9534460000     0.0131030000
   12      H       0.6440160000    -1.9531460000     0.5532030000
   13      H      -0.7007840000    -2.6572460000     0.7225030000
   14      H       0.1824160000    -2.4723460000    -0.8070970000
   15      H       1.1531160000     2.5844540000    -1.1484970000
 ----------------------------------------------------------------

   10    -629.4105373136      5.92e-07  Convergence criterion met
 Total energy in the final basis set =     -629.4105373136
        RIMP2         total energy =      -630.5898014672 a.u.

                    Orbital Energies (a.u.)
 --------------------------------------------------------------

 Alpha MOs
 -- Occupied --
-91.9794 -11.2810 -11.2524 -11.2477 -11.2269 -11.2253 -11.2184  -8.9791
 -6.6600  -6.6595  -6.6589  -1.1629  -1.0557  -0.9979  -0.9393  -0.8825
 -0.7434  -0.7213  -0.6482  -0.5887  -0.5745  -0.5681  -0.5568  -0.5444
 -0.5083  -0.4864  -0.4661  -0.4552  -0.3368  -0.2899

          Ground-State Mulliken Net Atomic Charges

     Atom                 Charge (a.u.)
  ----------------------------------------
      1 C                     0.036869
      2 C                    -0.273694
      3 C                     0.040870
      4 H                     0.174088
      5 C                    -0.271645
      6 S                     0.006512
      7 C                    -0.271563
      8 H                     0.101474
      9 H                     0.107473
     10 H                     0.106289
     11 C                    -0.388386
     12 H                     0.149765
     13 H                     0.152012
     14 H                     0.137051
     15 H                     0.192886
  ----------------------------------------
  Sum of atomic charges =     0.000000

                    Cartesian Multipole Moments
 -----------------------------------------------------------------
    Charge (ESU x 10^10)
                -0.0000
    Dipole Moment (Debye)
         X       1.1572      Y      -0.5238      Z       1.7562
       Tot       2.1674
    Quadrupole Moments (Debye-Ang)
        XX     -53.1506     XY       2.1709     YY     -43.8676
        XZ      -0.1524     YZ      -0.5963     ZZ     -48.4567

 Total job time:  157.88s(wall), 156.79s(cpu)
        *  Thank you very much for using Q-Chem.  Have a nice day.  *
