 Q-Chem 5.4, Q-Chem, Inc., Pleasanton, CA (2021)
 Q-Chem 5.4.0 for Intel X86 EM64T Linux

User input:
--------------------------------------------------------------
$molecule
0 1
C	-0.172227	-0.553191	0.011474
C	0.051273	0.281009	1.110874
C	0.409473	1.617709	0.788174
H	-0.044127	-0.075291	2.147574
C	0.466673	1.830809	-0.601026
S	0.071673	0.357109	-1.475326
C	0.691073	2.668409	1.826074
H	0.580873	2.257309	2.848174
H	-0.001527	3.531409	1.737674
H	1.722373	3.069409	1.737674
C	-0.172227	-1.993891	0.011474
H	-0.999627	-1.993591	0.705574
H	-0.698727	-2.697691	-0.616126
H	0.436573	-2.512791	0.736974
H	0.712373	2.747709	-1.150126
$end

$rem
JOBTYPE		SP
EXCHANGE	HF
CORRELATION	pRIMP2
BASIS		cc-pvtz
METHOD		rimp2
AUX_BASIS	rimp2-cc-pvtz
SOLVENT_METHOD	PCM
PURECART	11111
SYMMETRY	false
MEM_TOTAL	110000
SCF_CONVERGENCE = 6
THRESH=10
$end

$solvent
dielectric 4.90
$end
--------------------------------------------------------------

             Standard Nuclear Orientation (Angstroms)
    I     Atom           X                Y                Z
 ----------------------------------------------------------------
    1      C      -0.1722270000    -0.5531910000     0.0114740000
    2      C       0.0512730000     0.2810090000     1.1108740000
    3      C       0.4094730000     1.6177090000     0.7881740000
    4      H      -0.0441270000    -0.0752910000     2.1475740000
    5      C       0.4666730000     1.8308090000    -0.6010260000
    6      S       0.0716730000     0.3571090000    -1.4753260000
    7      C       0.6910730000     2.6684090000     1.8260740000
    8      H       0.5808730000     2.2573090000     2.8481740000
    9      H      -0.0015270000     3.5314090000     1.7376740000
   10      H       1.7223730000     3.0694090000     1.7376740000
   11      C      -0.1722270000    -1.9938910000     0.0114740000
   12      H      -0.9996270000    -1.9935910000     0.7055740000
   13      H      -0.6987270000    -2.6976910000    -0.6161260000
   14      H       0.4365730000    -2.5127910000     0.7369740000
   15      H       0.7123730000     2.7477090000    -1.1501260000
 ----------------------------------------------------------------

   10    -629.4190242602      5.80e-07  Convergence criterion met
 Total energy in the final basis set =     -629.4190242602
        RIMP2         total energy =      -630.5973674312 a.u.

                    Orbital Energies (a.u.)
 --------------------------------------------------------------

 Alpha MOs
 -- Occupied --
-91.9758 -11.2806 -11.2528 -11.2474 -11.2293 -11.2270 -11.2182  -8.9758
 -6.6567  -6.6561  -6.6556  -1.1606  -1.0548  -0.9986  -0.9400  -0.8838
 -0.7425  -0.7211  -0.6474  -0.5906  -0.5754  -0.5676  -0.5583  -0.5433
 -0.5100  -0.4907  -0.4638  -0.4460  -0.3374  -0.2936

          Ground-State Mulliken Net Atomic Charges

     Atom                 Charge (a.u.)
  ----------------------------------------
      1 C                     0.061888
      2 C                    -0.299108
      3 C                     0.047498
      4 H                     0.176658
      5 C                    -0.265776
      6 S                    -0.002279
      7 C                    -0.274174
      8 H                     0.101120
      9 H                     0.107133
     10 H                     0.107362
     11 C                    -0.383142
     12 H                     0.133405
     13 H                     0.159760
     14 H                     0.138106
     15 H                     0.191549
  ----------------------------------------
  Sum of atomic charges =     0.000000

                    Cartesian Multipole Moments
 -----------------------------------------------------------------
    Charge (ESU x 10^10)
                -0.0000
    Dipole Moment (Debye)
         X      -0.2060      Y      -0.4450      Z       1.9242
       Tot       1.9857
    Quadrupole Moments (Debye-Ang)
        XX     -53.3454     XY       3.5035     YY     -42.6570
        XZ       0.3325     YZ      -0.4936     ZZ     -48.7001

 Total job time:  155.93s(wall), 154.81s(cpu)
        *  Thank you very much for using Q-Chem.  Have a nice day.  *
