 Q-Chem 5.4, Q-Chem, Inc., Pleasanton, CA (2021)
 Q-Chem 5.4.0 for Intel X86 EM64T Linux

User input:
--------------------------------------------------------------
$molecule
0 1
C	-0.172650	-0.553189	0.011118
C	0.050850	0.281011	1.110518
C	0.409050	1.617711	0.787818
H	-0.044550	-0.075289	2.147218
C	0.466250	1.830811	-0.601382
S	0.071250	0.357111	-1.475682
C	0.690650	2.668411	1.825718
H	0.580450	2.257311	2.847818
H	-0.001950	3.531411	1.737318
H	1.721950	3.069411	1.737318
C	-0.172650	-1.993889	0.011118
H	-0.712750	-1.994089	0.946318
H	0.536750	-2.697689	0.420718
H	-0.992850	-2.512789	-0.462482
H	0.711950	2.747711	-1.150482
$end

$rem
JOBTYPE		SP
EXCHANGE	HF
CORRELATION	pRIMP2
BASIS		cc-pvtz
METHOD		rimp2
AUX_BASIS	rimp2-cc-pvtz
SOLVENT_METHOD	PCM
PURECART	11111
SYMMETRY	false
MEM_TOTAL	110000
SCF_CONVERGENCE = 6
THRESH=10
$end

$solvent
dielectric 4.90
$end
--------------------------------------------------------------

             Standard Nuclear Orientation (Angstroms)
    I     Atom           X                Y                Z
 ----------------------------------------------------------------
    1      C      -0.1726500000    -0.5531890000     0.0111180000
    2      C       0.0508500000     0.2810110000     1.1105180000
    3      C       0.4090500000     1.6177110000     0.7878180000
    4      H      -0.0445500000    -0.0752890000     2.1472180000
    5      C       0.4662500000     1.8308110000    -0.6013820000
    6      S       0.0712500000     0.3571110000    -1.4756820000
    7      C       0.6906500000     2.6684110000     1.8257180000
    8      H       0.5804500000     2.2573110000     2.8478180000
    9      H      -0.0019500000     3.5314110000     1.7373180000
   10      H       1.7219500000     3.0694110000     1.7373180000
   11      C      -0.1726500000    -1.9938890000     0.0111180000
   12      H      -0.7127500000    -1.9940890000     0.9463180000
   13      H       0.5367500000    -2.6976890000     0.4207180000
   14      H      -0.9928500000    -2.5127890000    -0.4624820000
   15      H       0.7119500000     2.7477110000    -1.1504820000
 ----------------------------------------------------------------

   10    -629.4199123889      5.18e-07  Convergence criterion met
 Total energy in the final basis set =     -629.4199123889
        RIMP2         total energy =      -630.5987453603 a.u.

                    Orbital Energies (a.u.)
 --------------------------------------------------------------

 Alpha MOs
 -- Occupied --
-91.9752 -11.2764 -11.2574 -11.2473 -11.2334 -11.2273 -11.2163  -8.9753
 -6.6562  -6.6556  -6.6551  -1.1611  -1.0539  -0.9991  -0.9401  -0.8843
 -0.7426  -0.7233  -0.6490  -0.5888  -0.5770  -0.5657  -0.5598  -0.5425
 -0.5111  -0.4868  -0.4658  -0.4403  -0.3377  -0.3002

          Ground-State Mulliken Net Atomic Charges

     Atom                 Charge (a.u.)
  ----------------------------------------
      1 C                     0.046966
      2 C                    -0.274722
      3 C                     0.037627
      4 H                     0.178333
      5 C                    -0.254111
      6 S                    -0.005192
      7 C                    -0.273260
      8 H                     0.101219
      9 H                     0.106964
     10 H                     0.107262
     11 C                    -0.367470
     12 H                     0.122524
     13 H                     0.145724
     14 H                     0.135086
     15 H                     0.193052
  ----------------------------------------
  Sum of atomic charges =     0.000000

                    Cartesian Multipole Moments
 -----------------------------------------------------------------
    Charge (ESU x 10^10)
                -0.0000
    Dipole Moment (Debye)
         X       0.0455      Y      -0.1177      Z       2.0728
       Tot       2.0766
    Quadrupole Moments (Debye-Ang)
        XX     -53.1882     XY       2.9051     YY     -42.7971
        XZ       0.2430     YZ      -1.0011     ZZ     -48.8063

 Total job time:  155.31s(wall), 154.33s(cpu)
        *  Thank you very much for using Q-Chem.  Have a nice day.  *
