 Q-Chem 5.4, Q-Chem, Inc., Pleasanton, CA (2021)
 Q-Chem 5.4.0 for Intel X86 EM64T Linux

User input:
--------------------------------------------------------------
$molecule
0 1
C	-0.343855	-0.485419	0.013623
C	0.087945	0.262481	1.113023
C	0.779945	1.460981	0.790323
H	-0.096455	-0.056919	2.149723
C	0.890245	1.652081	-0.598877
S	0.127345	0.330681	-1.473177
C	1.323845	2.402981	1.828223
H	1.111045	2.034381	2.850323
H	0.878145	3.415781	1.739823
H	2.423845	2.523381	1.739823
C	-0.343855	-1.926119	0.013623
H	0.719745	-1.926319	0.201323
H	-0.201555	-2.629919	-0.793077
H	-0.508355	-2.445019	0.946323
H	1.364945	2.474081	-1.147977
$end

$rem
JOBTYPE		SP
EXCHANGE	HF
CORRELATION	pRIMP2
BASIS		cc-pvtz
METHOD		rimp2
AUX_BASIS	rimp2-cc-pvtz
SOLVENT_METHOD	PCM
PURECART	11111
SYMMETRY	false
MEM_TOTAL	110000
SCF_CONVERGENCE = 6
THRESH=10
$end

$solvent
dielectric 4.90
$end
--------------------------------------------------------------

             Standard Nuclear Orientation (Angstroms)
    I     Atom           X                Y                Z
 ----------------------------------------------------------------
    1      C      -0.3438550000    -0.4854190000     0.0136230000
    2      C       0.0879450000     0.2624810000     1.1130230000
    3      C       0.7799450000     1.4609810000     0.7903230000
    4      H      -0.0964550000    -0.0569190000     2.1497230000
    5      C       0.8902450000     1.6520810000    -0.5988770000
    6      S       0.1273450000     0.3306810000    -1.4731770000
    7      C       1.3238450000     2.4029810000     1.8282230000
    8      H       1.1110450000     2.0343810000     2.8503230000
    9      H       0.8781450000     3.4157810000     1.7398230000
   10      H       2.4238450000     2.5233810000     1.7398230000
   11      C      -0.3438550000    -1.9261190000     0.0136230000
   12      H       0.7197450000    -1.9263190000     0.2013230000
   13      H      -0.2015550000    -2.6299190000    -0.7930770000
   14      H      -0.5083550000    -2.4450190000     0.9463230000
   15      H       1.3649450000     2.4740810000    -1.1479770000
 ----------------------------------------------------------------

   10    -629.4078723742      6.32e-07  Convergence criterion met
 Total energy in the final basis set =     -629.4078723742
        RIMP2         total energy =      -630.5875304554 a.u.

                    Orbital Energies (a.u.)
 --------------------------------------------------------------

 Alpha MOs
 -- Occupied --
-91.9776 -11.2817 -11.2532 -11.2483 -11.2271 -11.2258 -11.2206  -8.9776
 -6.6586  -6.6580  -6.6574  -1.1642  -1.0566  -0.9975  -0.9393  -0.8823
 -0.7445  -0.7210  -0.6464  -0.5886  -0.5794  -0.5693  -0.5534  -0.5453
 -0.5086  -0.4897  -0.4625  -0.4569  -0.3382  -0.2874

          Ground-State Mulliken Net Atomic Charges

     Atom                 Charge (a.u.)
  ----------------------------------------
      1 C                     0.039634
      2 C                    -0.292584
      3 C                     0.051189
      4 H                     0.174928
      5 C                    -0.274617
      6 S                     0.002702
      7 C                    -0.270164
      8 H                     0.101637
      9 H                     0.107687
     10 H                     0.106346
     11 C                    -0.378666
     12 H                     0.151072
     13 H                     0.157482
     14 H                     0.130540
     15 H                     0.192815
  ----------------------------------------
  Sum of atomic charges =     0.000000

                    Cartesian Multipole Moments
 -----------------------------------------------------------------
    Charge (ESU x 10^10)
                -0.0000
    Dipole Moment (Debye)
         X       1.3321      Y      -0.6140      Z       1.5730
       Tot       2.1508
    Quadrupole Moments (Debye-Ang)
        XX     -52.8182     XY       2.5544     YY     -44.3287
        XZ       0.0767     YZ       0.0815     ZZ     -48.4755

 Total job time:  162.69s(wall), 160.45s(cpu)
        *  Thank you very much for using Q-Chem.  Have a nice day.  *
