 Q-Chem 5.4, Q-Chem, Inc., Pleasanton, CA (2021)
 Q-Chem 5.4.0 for Intel X86 EM64T Linux

User input:
--------------------------------------------------------------
$molecule
0 1
C	-0.291373	-0.512746	0.016439
C	0.073627	0.269954	1.115839
C	0.658527	1.524154	0.793139
H	-0.082273	-0.064346	2.152539
C	0.751827	1.724154	-0.596061
S	0.106927	0.341354	-1.470361
C	1.118227	2.509954	1.831039
H	0.938327	2.124254	2.853139
H	0.585927	3.480154	1.742639
H	2.203527	2.725854	1.742639
C	-0.291373	-1.953446	0.016439
H	0.772227	-1.953146	-0.170961
H	-0.149173	-2.657246	0.823239
H	-0.455873	-2.472346	-0.916261
H	1.152927	2.584454	-1.145161
$end

$rem
JOBTYPE		SP
EXCHANGE	HF
CORRELATION	pRIMP2
BASIS		cc-pvtz
METHOD		rimp2
AUX_BASIS	rimp2-cc-pvtz
SOLVENT_METHOD	PCM
PURECART	11111
SYMMETRY	false
MEM_TOTAL	110000
SCF_CONVERGENCE = 6
THRESH=10
$end

$solvent
dielectric 4.90
$end
--------------------------------------------------------------

             Standard Nuclear Orientation (Angstroms)
    I     Atom           X                Y                Z
 ----------------------------------------------------------------
    1      C      -0.2913730000    -0.5127460000     0.0164390000
    2      C       0.0736270000     0.2699540000     1.1158390000
    3      C       0.6585270000     1.5241540000     0.7931390000
    4      H      -0.0822730000    -0.0643460000     2.1525390000
    5      C       0.7518270000     1.7241540000    -0.5960610000
    6      S       0.1069270000     0.3413540000    -1.4703610000
    7      C       1.1182270000     2.5099540000     1.8310390000
    8      H       0.9383270000     2.1242540000     2.8531390000
    9      H       0.5859270000     3.4801540000     1.7426390000
   10      H       2.2035270000     2.7258540000     1.7426390000
   11      C      -0.2913730000    -1.9534460000     0.0164390000
   12      H       0.7722270000    -1.9531460000    -0.1709610000
   13      H      -0.1491730000    -2.6572460000     0.8232390000
   14      H      -0.4558730000    -2.4723460000    -0.9162610000
   15      H       1.1529270000     2.5844540000    -1.1451610000
 ----------------------------------------------------------------

   10    -629.4142840565      7.06e-07  Convergence criterion met
 Total energy in the final basis set =     -629.4142840565
        RIMP2         total energy =      -630.5916991874 a.u.

                    Orbital Energies (a.u.)
 --------------------------------------------------------------

 Alpha MOs
 -- Occupied --
-91.9776 -11.2825 -11.2526 -11.2475 -11.2267 -11.2246 -11.2217  -8.9777
 -6.6587  -6.6581  -6.6575  -1.1631  -1.0569  -0.9962  -0.9421  -0.8816
 -0.7453  -0.7197  -0.6489  -0.5859  -0.5790  -0.5652  -0.5531  -0.5471
 -0.5070  -0.4947  -0.4639  -0.4564  -0.3395  -0.2882

          Ground-State Mulliken Net Atomic Charges

     Atom                 Charge (a.u.)
  ----------------------------------------
      1 C                     0.057222
      2 C                    -0.323645
      3 C                     0.064066
      4 H                     0.175547
      5 C                    -0.277943
      6 S                    -0.000061
      7 C                    -0.271243
      8 H                     0.101647
      9 H                     0.107621
     10 H                     0.106800
     11 C                    -0.371244
     12 H                     0.147187
     13 H                     0.159639
     14 H                     0.131348
     15 H                     0.193058
  ----------------------------------------
  Sum of atomic charges =     0.000000

                    Cartesian Multipole Moments
 -----------------------------------------------------------------
    Charge (ESU x 10^10)
                -0.0000
    Dipole Moment (Debye)
         X       1.2303      Y      -0.6286      Z       1.3304
       Tot       1.9180
    Quadrupole Moments (Debye-Ang)
        XX     -53.3138     XY       2.0534     YY     -43.4904
        XZ       0.2751     YZ       0.3169     ZZ     -48.5653

 Total job time:  157.75s(wall), 156.21s(cpu)
        *  Thank you very much for using Q-Chem.  Have a nice day.  *
