 Q-Chem 5.4, Q-Chem, Inc., Pleasanton, CA (2021)
 Q-Chem 5.4.0 for Intel X86 EM64T Linux

User input:
--------------------------------------------------------------
$molecule
0 1
C	-0.431955	-0.417597	0.017710
C	0.123145	0.243903	1.117110
C	1.012745	1.304103	0.794410
H	-0.113855	-0.038597	2.153810
C	1.154645	1.473103	-0.594790
S	0.173845	0.304303	-1.469090
C	1.711945	2.137303	1.832310
H	1.438345	1.811303	2.854410
H	1.448945	3.212103	1.743910
H	2.816145	2.064903	1.743910
C	-0.431955	-1.858297	0.017710
H	-1.259255	-1.857997	-0.676590
H	0.094645	-2.562097	-0.609790
H	-1.040755	-2.377197	0.743310
H	1.764745	2.200203	-1.143890
$end

$rem
JOBTYPE		SP
EXCHANGE	HF
CORRELATION	pRIMP2
BASIS		cc-pvtz
METHOD		rimp2
AUX_BASIS	rimp2-cc-pvtz
SOLVENT_METHOD	PCM
PURECART	11111
SYMMETRY	false
MEM_TOTAL	110000
SCF_CONVERGENCE = 6
THRESH=10
$end

$solvent
dielectric 4.90
$end
--------------------------------------------------------------

             Standard Nuclear Orientation (Angstroms)
    I     Atom           X                Y                Z
 ----------------------------------------------------------------
    1      C      -0.4319550000    -0.4175970000     0.0177100000
    2      C       0.1231450000     0.2439030000     1.1171100000
    3      C       1.0127450000     1.3041030000     0.7944100000
    4      H      -0.1138550000    -0.0385970000     2.1538100000
    5      C       1.1546450000     1.4731030000    -0.5947900000
    6      S       0.1738450000     0.3043030000    -1.4690900000
    7      C       1.7119450000     2.1373030000     1.8323100000
    8      H       1.4383450000     1.8113030000     2.8544100000
    9      H       1.4489450000     3.2121030000     1.7439100000
   10      H       2.8161450000     2.0649030000     1.7439100000
   11      C      -0.4319550000    -1.8582970000     0.0177100000
   12      H      -1.2592550000    -1.8579970000    -0.6765900000
   13      H       0.0946450000    -2.5620970000    -0.6097900000
   14      H      -1.0407550000    -2.3771970000     0.7433100000
   15      H       1.7647450000     2.2002030000    -1.1438900000
 ----------------------------------------------------------------

   10    -629.3850525898      6.29e-07  Convergence criterion met
 Total energy in the final basis set =     -629.3850525898
        RIMP2         total energy =      -630.5699710267 a.u.

                    Orbital Energies (a.u.)
 --------------------------------------------------------------

 Alpha MOs
 -- Occupied --
-91.9775 -11.2666 -11.2623 -11.2479 -11.2367 -11.2274 -11.2109  -8.9778
 -6.6587  -6.6580  -6.6576  -1.1645  -1.0539  -0.9956  -0.9435  -0.8818
 -0.7485  -0.7226  -0.6434  -0.5876  -0.5752  -0.5730  -0.5505  -0.5451
 -0.5149  -0.4809  -0.4560  -0.4455  -0.3372  -0.2939

          Ground-State Mulliken Net Atomic Charges

     Atom                 Charge (a.u.)
  ----------------------------------------
      1 C                    -0.042224
      2 C                    -0.204074
      3 C                     0.024987
      4 H                     0.181717
      5 C                    -0.227509
      6 S                     0.000826
      7 C                    -0.270241
      8 H                     0.101604
      9 H                     0.106854
     10 H                     0.105437
     11 C                    -0.375155
     12 H                     0.118934
     13 H                     0.156537
     14 H                     0.126946
     15 H                     0.195359
  ----------------------------------------
  Sum of atomic charges =     0.000000

                    Cartesian Multipole Moments
 -----------------------------------------------------------------
    Charge (ESU x 10^10)
                -0.0000
    Dipole Moment (Debye)
         X       0.8309      Y       0.1331      Z       1.2192
       Tot       1.4813
    Quadrupole Moments (Debye-Ang)
        XX     -50.4161     XY       5.3708     YY     -46.3558
        XZ      -0.2630     YZ       0.8057     ZZ     -48.3009

 Total job time:  157.55s(wall), 154.69s(cpu)
        *  Thank you very much for using Q-Chem.  Have a nice day.  *
