 Q-Chem 5.4, Q-Chem, Inc., Pleasanton, CA (2021)
 Q-Chem 5.4.0 for Intel X86 EM64T Linux

User input:
--------------------------------------------------------------
$molecule
0 1
C	-0.521571	-0.333972	0.010542
C	0.140029	0.221128	1.109942
C	1.200129	1.110628	0.787242
H	-0.142471	-0.015972	2.146642
C	1.369229	1.252428	-0.601958
S	0.200329	0.271728	-1.476258
C	2.033429	1.809828	1.825142
H	1.707329	1.536228	2.847242
H	1.961029	2.914028	1.736742
H	3.108229	1.546728	1.736742
C	-0.521571	-1.774672	0.010542
H	0.018329	-1.774872	0.945942
H	0.187929	-2.478472	-0.398958
H	-1.341771	-2.293572	0.484142
H	2.096329	1.862628	-1.151058
$end

$rem
JOBTYPE		SP
EXCHANGE	HF
CORRELATION	pRIMP2
BASIS		cc-pvtz
METHOD		rimp2
AUX_BASIS	rimp2-cc-pvtz
SOLVENT_METHOD	PCM
PURECART	11111
SYMMETRY	false
MEM_TOTAL	110000
SCF_CONVERGENCE = 6
THRESH=10
$end

$solvent
dielectric 4.90
$end
--------------------------------------------------------------

             Standard Nuclear Orientation (Angstroms)
    I     Atom           X                Y                Z
 ----------------------------------------------------------------
    1      C      -0.5215710000    -0.3339720000     0.0105420000
    2      C       0.1400290000     0.2211280000     1.1099420000
    3      C       1.2001290000     1.1106280000     0.7872420000
    4      H      -0.1424710000    -0.0159720000     2.1466420000
    5      C       1.3692290000     1.2524280000    -0.6019580000
    6      S       0.2003290000     0.2717280000    -1.4762580000
    7      C       2.0334290000     1.8098280000     1.8251420000
    8      H       1.7073290000     1.5362280000     2.8472420000
    9      H       1.9610290000     2.9140280000     1.7367420000
   10      H       3.1082290000     1.5467280000     1.7367420000
   11      C      -0.5215710000    -1.7746720000     0.0105420000
   12      H       0.0183290000    -1.7748720000     0.9459420000
   13      H       0.1879290000    -2.4784720000    -0.3989580000
   14      H      -1.3417710000    -2.2935720000     0.4841420000
   15      H       2.0963290000     1.8626280000    -1.1510580000
 ----------------------------------------------------------------

   11    -629.3611322261      4.52e-07  Convergence criterion met
 Total energy in the final basis set =     -629.3611322261
        RIMP2         total energy =      -630.5516109342 a.u.

                    Orbital Energies (a.u.)
 --------------------------------------------------------------

 Alpha MOs
 -- Occupied --
-91.9769 -11.2718 -11.2567 -11.2485 -11.2435 -11.2286 -11.2066  -8.9771
 -6.6579  -6.6572  -6.6569  -1.1707  -1.0554  -1.0008  -0.9342  -0.8826
 -0.7457  -0.7307  -0.6440  -0.5886  -0.5802  -0.5731  -0.5537  -0.5435
 -0.5171  -0.4717  -0.4567  -0.4426  -0.3310  -0.2963

          Ground-State Mulliken Net Atomic Charges

     Atom                 Charge (a.u.)
  ----------------------------------------
      1 C                    -0.058110
      2 C                    -0.168189
      3 C                    -0.005400
      4 H                     0.179956
      5 C                    -0.214128
      6 S                     0.013874
      7 C                    -0.268643
      8 H                     0.101528
      9 H                     0.106972
     10 H                     0.104658
     11 C                    -0.378950
     12 H                     0.130214
     13 H                     0.152399
     14 H                     0.108506
     15 H                     0.195313
  ----------------------------------------
  Sum of atomic charges =     0.000000

                    Cartesian Multipole Moments
 -----------------------------------------------------------------
    Charge (ESU x 10^10)
                -0.0000
    Dipole Moment (Debye)
         X       2.1010      Y       0.1341      Z       2.1294
       Tot       2.9944
    Quadrupole Moments (Debye-Ang)
        XX     -49.6492     XY       3.6610     YY     -48.5558
        XZ      -0.5858     YZ      -0.8482     ZZ     -48.0609

 Total job time:  174.42s(wall), 172.60s(cpu)
        *  Thank you very much for using Q-Chem.  Have a nice day.  *
