 Q-Chem 5.4, Q-Chem, Inc., Pleasanton, CA (2021)
 Q-Chem 5.4.0 for Intel X86 EM64T Linux

User input:
--------------------------------------------------------------
$molecule
0 1
C	-0.336499	-0.485421	0.010946
C	0.095301	0.262479	1.110346
C	0.787301	1.460979	0.787646
H	-0.089099	-0.056921	2.147046
C	0.897601	1.652079	-0.601554
S	0.134701	0.330679	-1.475854
C	1.331201	2.402979	1.825546
H	1.118401	2.034379	2.847646
H	0.885501	3.415779	1.737146
H	2.431201	2.523379	1.737146
C	-0.336499	-1.926121	0.010946
H	-1.030799	-1.925821	0.838246
H	-0.963999	-2.629921	-0.515654
H	0.389101	-2.445021	0.619746
H	1.372301	2.474079	-1.150654
$end

$rem
JOBTYPE		SP
EXCHANGE	HF
CORRELATION	pRIMP2
BASIS		cc-pvtz
METHOD		rimp2
AUX_BASIS	rimp2-cc-pvtz
SOLVENT_METHOD	PCM
PURECART	11111
SYMMETRY	false
MEM_TOTAL	110000
SCF_CONVERGENCE = 6
THRESH=10
$end

$solvent
dielectric 4.90
$end
--------------------------------------------------------------

   10    -629.4060385186      5.41e-07  Convergence criterion met
 Total energy in the final basis set =     -629.4060385186
        RIMP2         total energy =      -630.5880600063 a.u.
 Total job time:  157.27s(wall), 155.24s(cpu)
        *  Thank you very much for using Q-Chem.  Have a nice day.  *
 Q-Chem 5.4, Q-Chem, Inc., Pleasanton, CA (2021)
 Q-Chem 5.4.0 for Intel X86 EM64T Linux

User input:
--------------------------------------------------------------
$molecule
0 1
C	-0.336499	-0.485421	0.010946
C	0.095301	0.262479	1.110346
C	0.787301	1.460979	0.787646
H	-0.089099	-0.056921	2.147046
C	0.897601	1.652079	-0.601554
S	0.134701	0.330679	-1.475854
C	1.331201	2.402979	1.825546
H	1.118401	2.034379	2.847646
H	0.885501	3.415779	1.737146
H	2.431201	2.523379	1.737146
C	-0.336499	-1.926121	0.010946
H	-1.030799	-1.925821	0.838246
H	-0.963999	-2.629921	-0.515654
H	0.389101	-2.445021	0.619746
H	1.372301	2.474079	-1.150654
$end

$rem
JOBTYPE		SP
EXCHANGE	HF
CORRELATION	pRIMP2
BASIS		cc-pvtz
METHOD		rimp2
AUX_BASIS	rimp2-cc-pvtz
SOLVENT_METHOD	PCM
PURECART	11111
SYMMETRY	false
MEM_TOTAL	110000
SCF_CONVERGENCE = 6
THRESH=10
$end

$solvent
dielectric 4.90
$end
--------------------------------------------------------------

             Standard Nuclear Orientation (Angstroms)
    I     Atom           X                Y                Z
 ----------------------------------------------------------------
    1      C      -0.3364990000    -0.4854210000     0.0109460000
    2      C       0.0953010000     0.2624790000     1.1103460000
    3      C       0.7873010000     1.4609790000     0.7876460000
    4      H      -0.0890990000    -0.0569210000     2.1470460000
    5      C       0.8976010000     1.6520790000    -0.6015540000
    6      S       0.1347010000     0.3306790000    -1.4758540000
    7      C       1.3312010000     2.4029790000     1.8255460000
    8      H       1.1184010000     2.0343790000     2.8476460000
    9      H       0.8855010000     3.4157790000     1.7371460000
   10      H       2.4312010000     2.5233790000     1.7371460000
   11      C      -0.3364990000    -1.9261210000     0.0109460000
   12      H      -1.0307990000    -1.9258210000     0.8382460000
   13      H      -0.9639990000    -2.6299210000    -0.5156540000
   14      H       0.3891010000    -2.4450210000     0.6197460000
   15      H       1.3723010000     2.4740790000    -1.1506540000
 ----------------------------------------------------------------

   10    -629.4060385186      5.41e-07  Convergence criterion met
 Total energy in the final basis set =     -629.4060385186
        RIMP2         total energy =      -630.5880600063 a.u.

                    Orbital Energies (a.u.)
 --------------------------------------------------------------

 Alpha MOs
 -- Occupied --
-91.9736 -11.2725 -11.2597 -11.2479 -11.2356 -11.2276 -11.2150  -8.9740
 -6.6549  -6.6542  -6.6537  -1.1626  -1.0541  -0.9987  -0.9389  -0.8840
 -0.7431  -0.7237  -0.6459  -0.5901  -0.5780  -0.5658  -0.5584  -0.5428
 -0.5124  -0.4882  -0.4628  -0.4371  -0.3374  -0.2967

          Ground-State Mulliken Net Atomic Charges

     Atom                 Charge (a.u.)
  ----------------------------------------
      1 C                     0.025581
      2 C                    -0.270123
      3 C                     0.038465
      4 H                     0.178033
      5 C                    -0.247102
      6 S                    -0.001110
      7 C                    -0.271195
      8 H                     0.101256
      9 H                     0.107022
     10 H                     0.106808
     11 C                    -0.376634
     12 H                     0.124705
     13 H                     0.152272
     14 H                     0.139729
     15 H                     0.192294
  ----------------------------------------
  Sum of atomic charges =     0.000000

                    Cartesian Multipole Moments
 -----------------------------------------------------------------
    Charge (ESU x 10^10)
                -0.0000
    Dipole Moment (Debye)
         X       0.3986      Y      -0.1416      Z       2.0674
       Tot       2.1103
    Quadrupole Moments (Debye-Ang)
        XX     -51.6340     XY       4.9258     YY     -44.6149
        XZ       0.2766     YZ      -0.7043     ZZ     -48.6643

 Total job time:  156.13s(wall), 155.26s(cpu)
        *  Thank you very much for using Q-Chem.  Have a nice day.  *
