 Q-Chem 5.4, Q-Chem, Inc., Pleasanton, CA (2021)
 Q-Chem 5.4.0 for Intel X86 EM64T Linux

User input:
--------------------------------------------------------------
$molecule
0 1
C	-0.004773	-0.576312	0.013912
C	-0.004773	0.287288	1.113312
C	-0.004673	1.671188	0.790612
H	-0.004773	-0.081512	2.150012
C	-0.004673	1.891888	-0.598588
S	-0.004773	0.366088	-1.472888
C	-0.004673	2.758988	1.828512
H	-0.004673	2.333288	2.850612
H	-0.897073	3.413288	1.740112
H	0.887727	3.413188	1.740112
C	-0.004773	-2.017012	0.013912
H	1.010027	-2.016712	0.383412
H	-0.284973	-2.720812	0.783712
H	0.319127	-2.535912	-0.876088
H	-0.004673	2.841088	-1.147688
$end

$rem
JOBTYPE		SP
EXCHANGE	HF
CORRELATION	pRIMP2
BASIS		cc-pvtz
METHOD		rimp2
AUX_BASIS	rimp2-cc-pvtz
SOLVENT_METHOD	PCM
PURECART	11111
SYMMETRY	false
MEM_TOTAL	110000
SCF_CONVERGENCE = 6
THRESH=10
$end

$solvent
dielectric 4.90
$end
--------------------------------------------------------------

   10    -629.4240193706      6.75e-07  Convergence criterion met
 Total energy in the final basis set =     -629.4240193706
        RIMP2         total energy =      -630.5997854269 a.u.
 Total job time:  157.30s(wall), 154.98s(cpu)
        *  Thank you very much for using Q-Chem.  Have a nice day.  *
 Q-Chem 5.4, Q-Chem, Inc., Pleasanton, CA (2021)
 Q-Chem 5.4.0 for Intel X86 EM64T Linux

User input:
--------------------------------------------------------------
$molecule
0 1
C	-0.004773	-0.576312	0.013912
C	-0.004773	0.287288	1.113312
C	-0.004673	1.671188	0.790612
H	-0.004773	-0.081512	2.150012
C	-0.004673	1.891888	-0.598588
S	-0.004773	0.366088	-1.472888
C	-0.004673	2.758988	1.828512
H	-0.004673	2.333288	2.850612
H	-0.897073	3.413288	1.740112
H	0.887727	3.413188	1.740112
C	-0.004773	-2.017012	0.013912
H	1.010027	-2.016712	0.383412
H	-0.284973	-2.720812	0.783712
H	0.319127	-2.535912	-0.876088
H	-0.004673	2.841088	-1.147688
$end

$rem
JOBTYPE		SP
EXCHANGE	HF
CORRELATION	pRIMP2
BASIS		cc-pvtz
METHOD		rimp2
AUX_BASIS	rimp2-cc-pvtz
SOLVENT_METHOD	PCM
PURECART	11111
SYMMETRY	false
MEM_TOTAL	110000
SCF_CONVERGENCE = 6
THRESH=10
$end

$solvent
dielectric 4.90
$end
--------------------------------------------------------------

             Standard Nuclear Orientation (Angstroms)
    I     Atom           X                Y                Z
 ----------------------------------------------------------------
    1      C      -0.0047730000    -0.5763120000     0.0139120000
    2      C      -0.0047730000     0.2872880000     1.1133120000
    3      C      -0.0046730000     1.6711880000     0.7906120000
    4      H      -0.0047730000    -0.0815120000     2.1500120000
    5      C      -0.0046730000     1.8918880000    -0.5985880000
    6      S      -0.0047730000     0.3660880000    -1.4728880000
    7      C      -0.0046730000     2.7589880000     1.8285120000
    8      H      -0.0046730000     2.3332880000     2.8506120000
    9      H      -0.8970730000     3.4132880000     1.7401120000
   10      H       0.8877270000     3.4131880000     1.7401120000
   11      C      -0.0047730000    -2.0170120000     0.0139120000
   12      H       1.0100270000    -2.0167120000     0.3834120000
   13      H      -0.2849730000    -2.7208120000     0.7837120000
   14      H       0.3191270000    -2.5359120000    -0.8760880000
   15      H      -0.0046730000     2.8410880000    -1.1476880000
 ----------------------------------------------------------------

   10    -629.4240193706      6.75e-07  Convergence criterion met
 Total energy in the final basis set =     -629.4240193706
        RIMP2         total energy =      -630.5997854269 a.u.

                    Orbital Energies (a.u.)
 --------------------------------------------------------------

 Alpha MOs
 -- Occupied --
-91.9790 -11.2851 -11.2488 -11.2470 -11.2264 -11.2230 -11.2213  -8.9787
 -6.6597  -6.6591  -6.6585  -1.1601  -1.0559  -0.9978  -0.9414  -0.8830
 -0.7430  -0.7193  -0.6498  -0.5873  -0.5732  -0.5677  -0.5572  -0.5450
 -0.5076  -0.4931  -0.4656  -0.4556  -0.3378  -0.2895

          Ground-State Mulliken Net Atomic Charges

     Atom                 Charge (a.u.)
  ----------------------------------------
      1 C                     0.070528
      2 C                    -0.308103
      3 C                     0.049232
      4 H                     0.174545
      5 C                    -0.279626
      6 S                     0.003456
      7 C                    -0.275085
      8 H                     0.101303
      9 H                     0.107221
     10 H                     0.107282
     11 C                    -0.384751
     12 H                     0.143495
     13 H                     0.160907
     14 H                     0.137146
     15 H                     0.192449
  ----------------------------------------
  Sum of atomic charges =     0.000000

                    Cartesian Multipole Moments
 -----------------------------------------------------------------
    Charge (ESU x 10^10)
                -0.0000
    Dipole Moment (Debye)
         X       0.7004      Y      -0.6994      Z       1.6284
       Tot       1.9056
    Quadrupole Moments (Debye-Ang)
        XX     -54.3211     XY      -1.4583     YY     -41.8269
        XZ      -0.1484     YZ      -0.2986     ZZ     -48.5785

 Total job time:  157.35s(wall), 155.46s(cpu)
        *  Thank you very much for using Q-Chem.  Have a nice day.  *
