 Q-Chem 5.4, Q-Chem, Inc., Pleasanton, CA (2021)
 Q-Chem 5.4.0 for Intel X86 EM64T Linux

User input:
--------------------------------------------------------------
$molecule
0 1
C	-0.439388	-0.417597	0.018590
C	0.115712	0.243903	1.117990
C	1.005312	1.304103	0.795290
H	-0.121288	-0.038597	2.154690
C	1.147212	1.473103	-0.593910
S	0.166412	0.304303	-1.468210
C	1.704512	2.137303	1.833190
H	1.430912	1.811303	2.855290
H	1.441512	3.212103	1.744790
H	2.808712	2.064903	1.744790
C	-0.439388	-1.858297	0.018590
H	0.388012	-1.857997	-0.675510
H	0.087112	-2.562097	0.646190
H	-1.048188	-2.377197	-0.706910
H	1.757312	2.200203	-1.143010
$end

$rem
JOBTYPE		SP
EXCHANGE	HF
CORRELATION	pRIMP2
BASIS		cc-pvtz
METHOD		rimp2
AUX_BASIS	rimp2-cc-pvtz
SOLVENT_METHOD	PCM
PURECART	11111
SYMMETRY	false
MEM_TOTAL	110000
SCF_CONVERGENCE = 6
THRESH=10
$end

$solvent
dielectric 4.90
$end
--------------------------------------------------------------

             Standard Nuclear Orientation (Angstroms)
    I     Atom           X                Y                Z
 ----------------------------------------------------------------
    1      C      -0.4393880000    -0.4175970000     0.0185900000
    2      C       0.1157120000     0.2439030000     1.1179900000
    3      C       1.0053120000     1.3041030000     0.7952900000
    4      H      -0.1212880000    -0.0385970000     2.1546900000
    5      C       1.1472120000     1.4731030000    -0.5939100000
    6      S       0.1664120000     0.3043030000    -1.4682100000
    7      C       1.7045120000     2.1373030000     1.8331900000
    8      H       1.4309120000     1.8113030000     2.8552900000
    9      H       1.4415120000     3.2121030000     1.7447900000
   10      H       2.8087120000     2.0649030000     1.7447900000
   11      C      -0.4393880000    -1.8582970000     0.0185900000
   12      H       0.3880120000    -1.8579970000    -0.6755100000
   13      H       0.0871120000    -2.5620970000     0.6461900000
   14      H      -1.0481880000    -2.3771970000    -0.7069100000
   15      H       1.7573120000     2.2002030000    -1.1430100000
 ----------------------------------------------------------------

   10    -629.3881991923      6.50e-07  Convergence criterion met
 Total energy in the final basis set =     -629.3881991923
        RIMP2         total energy =      -630.5713950433 a.u.

                    Orbital Energies (a.u.)
 --------------------------------------------------------------

 Alpha MOs
 -- Occupied --
-91.9732 -11.2694 -11.2641 -11.2477 -11.2362 -11.2276 -11.2137  -8.9742
 -6.6551  -6.6544  -6.6539  -1.1673  -1.0569  -0.9945  -0.9436  -0.8798
 -0.7494  -0.7223  -0.6469  -0.5857  -0.5814  -0.5650  -0.5525  -0.5476
 -0.5127  -0.4861  -0.4615  -0.4443  -0.3398  -0.2921

          Ground-State Mulliken Net Atomic Charges

     Atom                 Charge (a.u.)
  ----------------------------------------
      1 C                     0.011688
      2 C                    -0.261202
      3 C                     0.034519
      4 H                     0.179840
      5 C                    -0.237958
      6 S                    -0.007420
      7 C                    -0.269884
      8 H                     0.101611
      9 H                     0.107840
     10 H                     0.106177
     11 C                    -0.374966
     12 H                     0.138423
     13 H                     0.156011
     14 H                     0.121101
     15 H                     0.194218
  ----------------------------------------
  Sum of atomic charges =     0.000000

                    Cartesian Multipole Moments
 -----------------------------------------------------------------
    Charge (ESU x 10^10)
                -0.0000
    Dipole Moment (Debye)
         X       1.7131      Y      -0.1374      Z       1.2089
       Tot       2.1012
    Quadrupole Moments (Debye-Ang)
        XX     -51.2008     XY       3.3715     YY     -46.3073
        XZ       0.3852     YZ       0.8748     ZZ     -48.4297

 Total job time:  161.22s(wall), 159.37s(cpu)
        *  Thank you very much for using Q-Chem.  Have a nice day.  *
