 Q-Chem 5.4, Q-Chem, Inc., Pleasanton, CA (2021)
 Q-Chem 5.4.0 for Intel X86 EM64T Linux

User input:
--------------------------------------------------------------
$molecule
0 1
C	-0.583910	-0.237127	0.011685
C	0.163990	0.194673	1.111085
C	1.362490	0.886573	0.788385
H	-0.155410	0.010273	2.147785
C	1.553590	0.996873	-0.600815
S	0.232290	0.234073	-1.475115
C	2.304590	1.430473	1.826285
H	1.935890	1.217573	2.848385
H	2.424990	2.530373	1.737885
H	3.317390	0.984673	1.737885
C	-0.583910	-1.677827	0.011685
H	-1.278210	-1.678027	0.838985
H	0.043590	-2.381627	0.538285
H	-1.309510	-2.196727	-0.597115
H	2.375690	1.471473	-1.149915
$end

$rem
JOBTYPE		SP
EXCHANGE	HF
CORRELATION	pRIMP2
BASIS		cc-pvtz
METHOD		rimp2
AUX_BASIS	rimp2-cc-pvtz
SOLVENT_METHOD	PCM
PURECART	11111
SYMMETRY	false
MEM_TOTAL	110000
SCF_CONVERGENCE = 6
THRESH=10
$end

$solvent
dielectric 4.90
$end
--------------------------------------------------------------

             Standard Nuclear Orientation (Angstroms)
    I     Atom           X                Y                Z
 ----------------------------------------------------------------
    1      C      -0.5839100000    -0.2371270000     0.0116850000
    2      C       0.1639900000     0.1946730000     1.1110850000
    3      C       1.3624900000     0.8865730000     0.7883850000
    4      H      -0.1554100000     0.0102730000     2.1477850000
    5      C       1.5535900000     0.9968730000    -0.6008150000
    6      S       0.2322900000     0.2340730000    -1.4751150000
    7      C       2.3045900000     1.4304730000     1.8262850000
    8      H       1.9358900000     1.2175730000     2.8483850000
    9      H       2.4249900000     2.5303730000     1.7378850000
   10      H       3.3173900000     0.9846730000     1.7378850000
   11      C      -0.5839100000    -1.6778270000     0.0116850000
   12      H      -1.2782100000    -1.6780270000     0.8389850000
   13      H       0.0435900000    -2.3816270000     0.5382850000
   14      H      -1.3095100000    -2.1967270000    -0.5971150000
   15      H       2.3756900000     1.4714730000    -1.1499150000
 ----------------------------------------------------------------

   11    -629.3495561166      4.38e-07  Convergence criterion met
 Total energy in the final basis set =     -629.3495561166
        RIMP2         total energy =      -630.5405503644 a.u.

                    Orbital Energies (a.u.)
 --------------------------------------------------------------

 Alpha MOs
 -- Occupied --
-91.9709 -11.2838 -11.2557 -11.2500 -11.2411 -11.2295 -11.2074  -8.9721
 -6.6529  -6.6519  -6.6518  -1.1732  -1.0554  -1.0003  -0.9361  -0.8835
 -0.7488  -0.7329  -0.6450  -0.5865  -0.5836  -0.5672  -0.5533  -0.5429
 -0.5206  -0.4817  -0.4600  -0.4140  -0.3363  -0.2990

          Ground-State Mulliken Net Atomic Charges

     Atom                 Charge (a.u.)
  ----------------------------------------
      1 C                    -0.110088
      2 C                    -0.116676
      3 C                    -0.025867
      4 H                     0.185698
      5 C                    -0.176099
      6 S                     0.011163
      7 C                    -0.267607
      8 H                     0.102011
      9 H                     0.106898
     10 H                     0.105055
     11 C                    -0.380253
     12 H                     0.107991
     13 H                     0.141994
     14 H                     0.118703
     15 H                     0.197077
  ----------------------------------------
  Sum of atomic charges =     0.000000

                    Cartesian Multipole Moments
 -----------------------------------------------------------------
    Charge (ESU x 10^10)
                -0.0000
    Dipole Moment (Debye)
         X       2.1648      Y       0.2595      Z       2.1979
       Tot       3.0959
    Quadrupole Moments (Debye-Ang)
        XX     -47.5472     XY       4.9128     YY     -50.0909
        XZ      -0.1659     YZ      -0.7116     ZZ     -47.9357

 Total job time:  176.06s(wall), 174.04s(cpu)
        *  Thank you very much for using Q-Chem.  Have a nice day.  *
