 Q-Chem 5.4, Q-Chem, Inc., Pleasanton, CA (2021)
 Q-Chem 5.4.0 for Intel X86 EM64T Linux

User input:
--------------------------------------------------------------
$molecule
0 1
C	-0.170896	-0.553189	0.016441
C	0.052604	0.281011	1.115841
C	0.410804	1.617711	0.793141
H	-0.042796	-0.075289	2.152541
C	0.468004	1.830811	-0.596059
S	0.073004	0.357111	-1.470359
C	0.692404	2.668411	1.831041
H	0.582204	2.257311	2.853141
H	-0.000196	3.531411	1.742641
H	1.723704	3.069411	1.742641
C	-0.170896	-1.993889	0.016441
H	-1.234496	-1.994089	-0.171259
H	-0.313196	-2.697689	0.823141
H	-0.006396	-2.512789	-0.916259
H	0.713704	2.747711	-1.145159
$end

$rem
JOBTYPE		SP
EXCHANGE	HF
CORRELATION	pRIMP2
BASIS		cc-pvtz
METHOD		rimp2
AUX_BASIS	rimp2-cc-pvtz
SOLVENT_METHOD	PCM
PURECART	11111
SYMMETRY	false
MEM_TOTAL	110000
SCF_CONVERGENCE = 6
THRESH=10
$end

$solvent
dielectric 4.90
$end
--------------------------------------------------------------

             Standard Nuclear Orientation (Angstroms)
    I     Atom           X                Y                Z
 ----------------------------------------------------------------
    1      C      -0.1708960000    -0.5531890000     0.0164410000
    2      C       0.0526040000     0.2810110000     1.1158410000
    3      C       0.4108040000     1.6177110000     0.7931410000
    4      H      -0.0427960000    -0.0752890000     2.1525410000
    5      C       0.4680040000     1.8308110000    -0.5960590000
    6      S       0.0730040000     0.3571110000    -1.4703590000
    7      C       0.6924040000     2.6684110000     1.8310410000
    8      H       0.5822040000     2.2573110000     2.8531410000
    9      H      -0.0001960000     3.5314110000     1.7426410000
   10      H       1.7237040000     3.0694110000     1.7426410000
   11      C      -0.1708960000    -1.9938890000     0.0164410000
   12      H      -1.2344960000    -1.9940890000    -0.1712590000
   13      H      -0.3131960000    -2.6976890000     0.8231410000
   14      H      -0.0063960000    -2.5127890000    -0.9162590000
   15      H       0.7137040000     2.7477110000    -1.1451590000
 ----------------------------------------------------------------

   10    -629.4168017245      6.66e-07  Convergence criterion met
 Total energy in the final basis set =     -629.4168017245
        RIMP2         total energy =      -630.5936174315 a.u.

                    Orbital Energies (a.u.)
 --------------------------------------------------------------

 Alpha MOs
 -- Occupied --
-91.9786 -11.2824 -11.2507 -11.2468 -11.2263 -11.2238 -11.2199  -8.9785
 -6.6595  -6.6589  -6.6583  -1.1603  -1.0557  -0.9965  -0.9432  -0.8824
 -0.7444  -0.7186  -0.6485  -0.5865  -0.5736  -0.5682  -0.5533  -0.5464
 -0.5088  -0.4938  -0.4612  -0.4571  -0.3384  -0.2881

          Ground-State Mulliken Net Atomic Charges

     Atom                 Charge (a.u.)
  ----------------------------------------
      1 C                     0.045259
      2 C                    -0.289925
      3 C                     0.046137
      4 H                     0.177918
      5 C                    -0.275585
      6 S                     0.000227
      7 C                    -0.272974
      8 H                     0.101339
      9 H                     0.107112
     10 H                     0.107017
     11 C                    -0.380152
     12 H                     0.136574
     13 H                     0.163909
     14 H                     0.139452
     15 H                     0.193691
  ----------------------------------------
  Sum of atomic charges =     0.000000

                    Cartesian Multipole Moments
 -----------------------------------------------------------------
    Charge (ESU x 10^10)
                -0.0000
    Dipole Moment (Debye)
         X      -0.4122      Y      -0.6161      Z       1.2814
       Tot       1.4803
    Quadrupole Moments (Debye-Ang)
        XX     -53.6251     XY       3.7579     YY     -42.4334
        XZ      -0.0633     YZ       0.4074     ZZ     -48.5187

 Total job time:  155.64s(wall), 154.42s(cpu)
        *  Thank you very much for using Q-Chem.  Have a nice day.  *
