 Q-Chem 5.4, Q-Chem, Inc., Pleasanton, CA (2021)
 Q-Chem 5.4.0 for Intel X86 EM64T Linux

User input:
--------------------------------------------------------------
$molecule
0 1
C	-0.516964	-0.333972	0.019119
C	0.144636	0.221128	1.118519
C	1.204736	1.110628	0.795819
H	-0.137864	-0.015972	2.155219
C	1.373836	1.252428	-0.593381
S	0.204936	0.271728	-1.467681
C	2.038036	1.809828	1.833719
H	1.711936	1.536228	2.855819
H	1.965636	2.914028	1.745319
H	3.112836	1.546728	1.745319
C	-0.516964	-1.774672	0.019119
H	-1.211064	-1.774872	-0.808281
H	-1.144564	-2.478472	0.545619
H	0.208536	-2.293572	-0.589681
H	2.100936	1.862628	-1.142481
$end

$rem
JOBTYPE		SP
EXCHANGE	HF
CORRELATION	pRIMP2
BASIS		cc-pvtz
METHOD		rimp2
AUX_BASIS	rimp2-cc-pvtz
SOLVENT_METHOD	PCM
PURECART	11111
SYMMETRY	false
MEM_TOTAL	110000
SCF_CONVERGENCE = 6
THRESH=10
$end

$solvent
dielectric 4.90
$end
--------------------------------------------------------------

             Standard Nuclear Orientation (Angstroms)
    I     Atom           X                Y                Z
 ----------------------------------------------------------------
    1      C      -0.5169640000    -0.3339720000     0.0191190000
    2      C       0.1446360000     0.2211280000     1.1185190000
    3      C       1.2047360000     1.1106280000     0.7958190000
    4      H      -0.1378640000    -0.0159720000     2.1552190000
    5      C       1.3738360000     1.2524280000    -0.5933810000
    6      S       0.2049360000     0.2717280000    -1.4676810000
    7      C       2.0380360000     1.8098280000     1.8337190000
    8      H       1.7119360000     1.5362280000     2.8558190000
    9      H       1.9656360000     2.9140280000     1.7453190000
   10      H       3.1128360000     1.5467280000     1.7453190000
   11      C      -0.5169640000    -1.7746720000     0.0191190000
   12      H      -1.2110640000    -1.7748720000    -0.8082810000
   13      H      -1.1445640000    -2.4784720000     0.5456190000
   14      H       0.2085360000    -2.2935720000    -0.5896810000
   15      H       2.1009360000     1.8626280000    -1.1424810000
 ----------------------------------------------------------------

   10    -629.3678754006      9.74e-07  Convergence criterion met
 Total energy in the final basis set =     -629.3678754006
        RIMP2         total energy =      -630.5554939166 a.u.

                    Orbital Energies (a.u.)
 --------------------------------------------------------------

 Alpha MOs
 -- Occupied --
-91.9773 -11.2747 -11.2526 -11.2482 -11.2426 -11.2279 -11.2088  -8.9778
 -6.6587  -6.6580  -6.6575  -1.1685  -1.0551  -0.9952  -0.9439  -0.8804
 -0.7513  -0.7249  -0.6429  -0.5916  -0.5768  -0.5683  -0.5519  -0.5455
 -0.5159  -0.4760  -0.4560  -0.4401  -0.3360  -0.2970

          Ground-State Mulliken Net Atomic Charges

     Atom                 Charge (a.u.)
  ----------------------------------------
      1 C                    -0.075457
      2 C                    -0.153574
      3 C                     0.000923
      4 H                     0.181615
      5 C                    -0.205077
      6 S                     0.007204
      7 C                    -0.269538
      8 H                     0.101838
      9 H                     0.106724
     10 H                     0.104665
     11 C                    -0.376825
     12 H                     0.109651
     13 H                     0.140576
     14 H                     0.130068
     15 H                     0.197208
  ----------------------------------------
  Sum of atomic charges =     0.000000

                    Cartesian Multipole Moments
 -----------------------------------------------------------------
    Charge (ESU x 10^10)
                -0.0000
    Dipole Moment (Debye)
         X       1.5159      Y       0.2525      Z       1.2423
       Tot       1.9761
    Quadrupole Moments (Debye-Ang)
        XX     -48.9486     XY       5.5039     YY     -48.2134
        XZ      -0.3828     YZ       0.5768     ZZ     -48.1344

 Total job time:  158.60s(wall), 157.35s(cpu)
        *  Thank you very much for using Q-Chem.  Have a nice day.  *
