 Q-Chem 5.4, Q-Chem, Inc., Pleasanton, CA (2021)
 Q-Chem 5.4.0 for Intel X86 EM64T Linux

User input:
--------------------------------------------------------------
$molecule
0 1
C	-0.062492	-0.573727	0.011472
C	0.012808	0.286573	1.110872
C	0.133408	1.665273	0.788172
H	-0.019292	-0.080827	2.147572
C	0.152708	1.885073	-0.601028
S	0.019708	0.365073	-1.475328
C	0.228308	2.748873	1.826072
H	0.191208	2.324773	2.848172
H	-0.603692	3.478373	1.737672
H	1.174308	3.322873	1.737672
C	-0.062492	-2.014427	0.011472
H	0.764808	-2.014627	0.705772
H	0.464108	-2.718227	-0.616028
H	-0.671292	-2.533327	0.737072
H	0.235408	2.830673	-1.150128
$end

$rem
JOBTYPE		SP
EXCHANGE	HF
CORRELATION	pRIMP2
BASIS		cc-pvtz
METHOD		rimp2
AUX_BASIS	rimp2-cc-pvtz
SOLVENT_METHOD	PCM
PURECART	11111
SYMMETRY	false
MEM_TOTAL	110000
SCF_CONVERGENCE = 6
THRESH=10
$end

$solvent
dielectric 4.90
$end
--------------------------------------------------------------

             Standard Nuclear Orientation (Angstroms)
    I     Atom           X                Y                Z
 ----------------------------------------------------------------
    1      C      -0.0624920000    -0.5737270000     0.0114720000
    2      C       0.0128080000     0.2865730000     1.1108720000
    3      C       0.1334080000     1.6652730000     0.7881720000
    4      H      -0.0192920000    -0.0808270000     2.1475720000
    5      C       0.1527080000     1.8850730000    -0.6010280000
    6      S       0.0197080000     0.3650730000    -1.4753280000
    7      C       0.2283080000     2.7488730000     1.8260720000
    8      H       0.1912080000     2.3247730000     2.8481720000
    9      H      -0.6036920000     3.4783730000     1.7376720000
   10      H       1.1743080000     3.3228730000     1.7376720000
   11      C      -0.0624920000    -2.0144270000     0.0114720000
   12      H       0.7648080000    -2.0146270000     0.7057720000
   13      H       0.4641080000    -2.7182270000    -0.6160280000
   14      H      -0.6712920000    -2.5333270000     0.7370720000
   15      H       0.2354080000     2.8306730000    -1.1501280000
 ----------------------------------------------------------------

   10    -629.4231273205      6.08e-07  Convergence criterion met
 Total energy in the final basis set =     -629.4231273205
        RIMP2         total energy =      -630.6001340954 a.u.

                    Orbital Energies (a.u.)
 --------------------------------------------------------------

 Alpha MOs
 -- Occupied --
-91.9774 -11.2836 -11.2506 -11.2473 -11.2269 -11.2267 -11.2194  -8.9772
 -6.6581  -6.6576  -6.6570  -1.1604  -1.0552  -0.9988  -0.9399  -0.8836
 -0.7423  -0.7206  -0.6482  -0.5911  -0.5741  -0.5703  -0.5575  -0.5435
 -0.5091  -0.4876  -0.4667  -0.4500  -0.3371  -0.2932

          Ground-State Mulliken Net Atomic Charges

     Atom                 Charge (a.u.)
  ----------------------------------------
      1 C                     0.069315
      2 C                    -0.284386
      3 C                     0.038169
      4 H                     0.176126
      5 C                    -0.271428
      6 S                    -0.003646
      7 C                    -0.274646
      8 H                     0.101114
      9 H                     0.107326
     10 H                     0.107207
     11 C                    -0.391008
     12 H                     0.138853
     13 H                     0.159206
     14 H                     0.135818
     15 H                     0.191980
  ----------------------------------------
  Sum of atomic charges =     0.000000

                    Cartesian Multipole Moments
 -----------------------------------------------------------------
    Charge (ESU x 10^10)
                -0.0000
    Dipole Moment (Debye)
         X       0.6438      Y      -0.5472      Z       1.8889
       Tot       2.0692
    Quadrupole Moments (Debye-Ang)
        XX     -54.0919     XY      -0.5310     YY     -42.0670
        XZ      -0.2687     YZ      -0.4931     ZZ     -48.7067

 Total job time:  162.05s(wall), 159.84s(cpu)
        *  Thank you very much for using Q-Chem.  Have a nice day.  *
