 Q-Chem 5.4, Q-Chem, Inc., Pleasanton, CA (2021)
 Q-Chem 5.4.0 for Intel X86 EM64T Linux

User input:
--------------------------------------------------------------
$molecule
0 1
C	-0.341855	-0.485421	0.019118
C	0.089945	0.262479	1.118518
C	0.781945	1.460979	0.795818
H	-0.094455	-0.056921	2.155218
C	0.892245	1.652079	-0.593382
S	0.129345	0.330679	-1.467682
C	1.325845	2.402979	1.833718
H	1.113045	2.034379	2.855818
H	0.880145	3.415779	1.745318
H	2.425845	2.523379	1.745318
C	-0.341855	-1.926121	0.019118
H	0.352445	-1.925821	-0.808182
H	0.285645	-2.629921	0.545718
H	-1.067455	-2.445021	-0.589682
H	1.366945	2.474079	-1.142482
$end

$rem
JOBTYPE		SP
EXCHANGE	HF
CORRELATION	pRIMP2
BASIS		cc-pvtz
METHOD		rimp2
AUX_BASIS	rimp2-cc-pvtz
SOLVENT_METHOD	PCM
PURECART	11111
SYMMETRY	false
MEM_TOTAL	110000
SCF_CONVERGENCE = 6
THRESH=10
$end

$solvent
dielectric 4.90
$end
--------------------------------------------------------------

             Standard Nuclear Orientation (Angstroms)
    I     Atom           X                Y                Z
 ----------------------------------------------------------------
    1      C      -0.3418550000    -0.4854210000     0.0191180000
    2      C       0.0899450000     0.2624790000     1.1185180000
    3      C       0.7819450000     1.4609790000     0.7958180000
    4      H      -0.0944550000    -0.0569210000     2.1552180000
    5      C       0.8922450000     1.6520790000    -0.5933820000
    6      S       0.1293450000     0.3306790000    -1.4676820000
    7      C       1.3258450000     2.4029790000     1.8337180000
    8      H       1.1130450000     2.0343790000     2.8558180000
    9      H       0.8801450000     3.4157790000     1.7453180000
   10      H       2.4258450000     2.5233790000     1.7453180000
   11      C      -0.3418550000    -1.9261210000     0.0191180000
   12      H       0.3524450000    -1.9258210000    -0.8081820000
   13      H       0.2856450000    -2.6299210000     0.5457180000
   14      H      -1.0674550000    -2.4450210000    -0.5896820000
   15      H       1.3669450000     2.4740790000    -1.1424820000
 ----------------------------------------------------------------

   10    -629.4023797885      6.33e-07  Convergence criterion met
 Total energy in the final basis set =     -629.4023797885
        RIMP2         total energy =      -630.5828863314 a.u.

                    Orbital Energies (a.u.)
 --------------------------------------------------------------

 Alpha MOs
 -- Occupied --
-91.9754 -11.2727 -11.2603 -11.2471 -11.2328 -11.2271 -11.2146  -8.9761
 -6.6570  -6.6564  -6.6558  -1.1642  -1.0560  -0.9945  -0.9447  -0.8804
 -0.7483  -0.7204  -0.6475  -0.5873  -0.5787  -0.5651  -0.5525  -0.5477
 -0.5117  -0.4847  -0.4627  -0.4466  -0.3392  -0.2954

          Ground-State Mulliken Net Atomic Charges

     Atom                 Charge (a.u.)
  ----------------------------------------
      1 C                     0.031866
      2 C                    -0.284515
      3 C                     0.048463
      4 H                     0.179559
      5 C                    -0.249821
      6 S                    -0.006324
      7 C                    -0.270837
      8 H                     0.101654
      9 H                     0.107588
     10 H                     0.106365
     11 C                    -0.373890
     12 H                     0.133231
     13 H                     0.157968
     14 H                     0.124592
     15 H                     0.194103
  ----------------------------------------
  Sum of atomic charges =     0.000000

                    Cartesian Multipole Moments
 -----------------------------------------------------------------
    Charge (ESU x 10^10)
                -0.0000
    Dipole Moment (Debye)
         X       1.2711      Y      -0.1161      Z       1.0459
       Tot       1.6502
    Quadrupole Moments (Debye-Ang)
        XX     -52.2486     XY       2.8407     YY     -44.6722
        XZ       0.4396     YZ       1.1287     ZZ     -48.5774

 Total job time:  159.20s(wall), 158.43s(cpu)
        *  Thank you very much for using Q-Chem.  Have a nice day.  *
