 Q-Chem 5.4, Q-Chem, Inc., Pleasanton, CA (2021)
 Q-Chem 5.4.0 for Intel X86 EM64T Linux

User input:
--------------------------------------------------------------
$molecule
0 1
C	-0.590817	-0.237127	0.011472
C	0.157083	0.194673	1.110872
C	1.355583	0.886573	0.788172
H	-0.162317	0.010273	2.147572
C	1.546683	0.996873	-0.601028
S	0.225383	0.234073	-1.475328
C	2.297683	1.430473	1.826072
H	1.928983	1.217573	2.848172
H	2.418083	2.530373	1.737672
H	3.310483	0.984673	1.737672
C	-0.590817	-1.677827	0.011472
H	0.236483	-1.678027	0.705772
H	-0.064217	-2.381627	-0.616028
H	-1.199617	-2.196727	0.737072
H	2.368783	1.471473	-1.150128
$end

$rem
JOBTYPE		SP
EXCHANGE	HF
CORRELATION	pRIMP2
BASIS		cc-pvtz
METHOD		rimp2
AUX_BASIS	rimp2-cc-pvtz
SOLVENT_METHOD	PCM
PURECART	11111
SYMMETRY	false
MEM_TOTAL	110000
SCF_CONVERGENCE = 6
THRESH=10
$end

$solvent
dielectric 4.90
$end
--------------------------------------------------------------

             Standard Nuclear Orientation (Angstroms)
    I     Atom           X                Y                Z
 ----------------------------------------------------------------
    1      C      -0.5908170000    -0.2371270000     0.0114720000
    2      C       0.1570830000     0.1946730000     1.1108720000
    3      C       1.3555830000     0.8865730000     0.7881720000
    4      H      -0.1623170000     0.0102730000     2.1475720000
    5      C       1.5466830000     0.9968730000    -0.6010280000
    6      S       0.2253830000     0.2340730000    -1.4753280000
    7      C       2.2976830000     1.4304730000     1.8260720000
    8      H       1.9289830000     1.2175730000     2.8481720000
    9      H       2.4180830000     2.5303730000     1.7376720000
   10      H       3.3104830000     0.9846730000     1.7376720000
   11      C      -0.5908170000    -1.6778270000     0.0114720000
   12      H       0.2364830000    -1.6780270000     0.7057720000
   13      H      -0.0642170000    -2.3816270000    -0.6160280000
   14      H      -1.1996170000    -2.1967270000     0.7370720000
   15      H       2.3687830000     1.4714730000    -1.1501280000
 ----------------------------------------------------------------

   11    -629.3329958949      7.89e-07  Convergence criterion met
 Total energy in the final basis set =     -629.3329958949
        RIMP2         total energy =      -630.5282582803 a.u.

                    Orbital Energies (a.u.)
 --------------------------------------------------------------

 Alpha MOs
 -- Occupied --
-91.9795 -11.2802 -11.2501 -11.2486 -11.2474 -11.2294 -11.2061  -8.9797
 -6.6605  -6.6597  -6.6594  -1.1778  -1.0579  -1.0024  -0.9330  -0.8818
 -0.7493  -0.7332  -0.6442  -0.5913  -0.5803  -0.5741  -0.5532  -0.5460
 -0.5169  -0.4782  -0.4528  -0.4433  -0.3308  -0.2877

          Ground-State Mulliken Net Atomic Charges

     Atom                 Charge (a.u.)
  ----------------------------------------
      1 C                    -0.113338
      2 C                    -0.105933
      3 C                    -0.034008
      4 H                     0.186271
      5 C                    -0.198565
      6 S                     0.030498
      7 C                    -0.267088
      8 H                     0.102323
      9 H                     0.107243
     10 H                     0.103355
     11 C                    -0.381064
     12 H                     0.119805
     13 H                     0.148241
     14 H                     0.103482
     15 H                     0.198780
  ----------------------------------------
  Sum of atomic charges =     0.000000

                    Cartesian Multipole Moments
 -----------------------------------------------------------------
    Charge (ESU x 10^10)
                -0.0000
    Dipole Moment (Debye)
         X       2.8074      Y       0.0416      Z       1.9094
       Tot       3.3954
    Quadrupole Moments (Debye-Ang)
        XX     -48.8208     XY       3.4028     YY     -50.2889
        XZ      -0.7005     YZ      -0.5462     ZZ     -47.4414

 Total job time:  180.58s(wall), 179.29s(cpu)
        *  Thank you very much for using Q-Chem.  Have a nice day.  *
