 Q-Chem 5.4, Q-Chem, Inc., Pleasanton, CA (2021)
 Q-Chem 5.4.0 for Intel X86 EM64T Linux

User input:
--------------------------------------------------------------
$molecule
0 1
C	-0.115613	-0.566010	0.019394
C	0.034387	0.284490	1.118794
C	0.274687	1.647390	0.796094
H	-0.029713	-0.078710	2.155494
C	0.313087	1.864690	-0.593106
S	0.048087	0.362090	-1.467406
C	0.463587	2.718590	1.833994
H	0.389687	2.299390	2.856094
H	-0.301613	3.517890	1.745594
H	1.456087	3.207890	1.745594
C	-0.115613	-2.006710	0.019394
H	-0.484913	-2.006410	-0.995506
H	0.654187	-2.710510	-0.260706
H	-1.005613	-2.525610	0.343294
H	0.477887	2.799390	-1.142206
$end

$rem
JOBTYPE		SP
EXCHANGE	HF
CORRELATION	pRIMP2
BASIS		cc-pvtz
METHOD		rimp2
AUX_BASIS	rimp2-cc-pvtz
SOLVENT_METHOD	PCM
PURECART	11111
SYMMETRY	false
MEM_TOTAL	110000
SCF_CONVERGENCE = 6
THRESH=10
$end

$solvent
dielectric 4.90
$end
--------------------------------------------------------------

             Standard Nuclear Orientation (Angstroms)
    I     Atom           X                Y                Z
 ----------------------------------------------------------------
    1      C      -0.1156130000    -0.5660100000     0.0193940000
    2      C       0.0343870000     0.2844900000     1.1187940000
    3      C       0.2746870000     1.6473900000     0.7960940000
    4      H      -0.0297130000    -0.0787100000     2.1554940000
    5      C       0.3130870000     1.8646900000    -0.5931060000
    6      S       0.0480870000     0.3620900000    -1.4674060000
    7      C       0.4635870000     2.7185900000     1.8339940000
    8      H       0.3896870000     2.2993900000     2.8560940000
    9      H      -0.3016130000     3.5178900000     1.7455940000
   10      H       1.4560870000     3.2078900000     1.7455940000
   11      C      -0.1156130000    -2.0067100000     0.0193940000
   12      H      -0.4849130000    -2.0064100000    -0.9955060000
   13      H       0.6541870000    -2.7105100000    -0.2607060000
   14      H      -1.0056130000    -2.5256100000     0.3432940000
   15      H       0.4778870000     2.7993900000    -1.1422060000
 ----------------------------------------------------------------

   10    -629.4187764233      5.40e-07  Convergence criterion met
 Total energy in the final basis set =     -629.4187764233
        RIMP2         total energy =      -630.5969731181 a.u.

                    Orbital Energies (a.u.)
 --------------------------------------------------------------

 Alpha MOs
 -- Occupied --
-91.9802 -11.2746 -11.2580 -11.2472 -11.2296 -11.2269 -11.2159  -8.9800
 -6.6609  -6.6604  -6.6598  -1.1610  -1.0549  -0.9955  -0.9461  -0.8819
 -0.7477  -0.7189  -0.6477  -0.5909  -0.5755  -0.5675  -0.5524  -0.5473
 -0.5098  -0.4842  -0.4649  -0.4456  -0.3384  -0.3023

          Ground-State Mulliken Net Atomic Charges

     Atom                 Charge (a.u.)
  ----------------------------------------
      1 C                     0.041869
      2 C                    -0.258374
      3 C                     0.036099
      4 H                     0.180141
      5 C                    -0.255927
      6 S                    -0.001815
      7 C                    -0.273228
      8 H                     0.101788
      9 H                     0.106828
     10 H                     0.106861
     11 C                    -0.363771
     12 H                     0.112281
     13 H                     0.139269
     14 H                     0.133084
     15 H                     0.194897
  ----------------------------------------
  Sum of atomic charges =     0.000000

                    Cartesian Multipole Moments
 -----------------------------------------------------------------
    Charge (ESU x 10^10)
                -0.0000
    Dipole Moment (Debye)
         X       0.0355      Y       0.0229      Z       0.9007
       Tot       0.9017
    Quadrupole Moments (Debye-Ang)
        XX     -53.4768     XY       1.9369     YY     -42.4491
        XZ      -0.1338     YZ       1.4353     ZZ     -48.7896

 Total job time:  157.66s(wall), 155.06s(cpu)
        *  Thank you very much for using Q-Chem.  Have a nice day.  *
