 Q-Chem 5.4, Q-Chem, Inc., Pleasanton, CA (2021)
 Q-Chem 5.4.0 for Intel X86 EM64T Linux

User input:
--------------------------------------------------------------
$molecule
0 1
C	-0.334687	-0.485419	0.013104
C	0.097113	0.262481	1.112504
C	0.789113	1.460981	0.789804
H	-0.087287	-0.056919	2.149204
C	0.899413	1.652081	-0.599396
S	0.136513	0.330681	-1.473696
C	1.333013	2.402981	1.827704
H	1.120213	2.034381	2.849804
H	0.887313	3.415781	1.739304
H	2.433013	2.523381	1.739304
C	-0.334687	-1.926119	0.013104
H	-1.270087	-1.926319	0.553004
H	0.074813	-2.629919	0.722604
H	-0.808287	-2.445019	-0.807096
H	1.374113	2.474081	-1.148496
$end

$rem
JOBTYPE		SP
EXCHANGE	HF
CORRELATION	pRIMP2
BASIS		cc-pvtz
METHOD		rimp2
AUX_BASIS	rimp2-cc-pvtz
SOLVENT_METHOD	PCM
PURECART	11111
SYMMETRY	false
MEM_TOTAL	110000
SCF_CONVERGENCE = 6
THRESH=10
$end

$solvent
dielectric 4.90
$end
--------------------------------------------------------------

   10    -629.4022299158      5.56e-07  Convergence criterion met
 Total energy in the final basis set =     -629.4022299158
        RIMP2         total energy =      -630.5842515647 a.u.
 Total job time:  158.22s(wall), 155.03s(cpu)
        *  Thank you very much for using Q-Chem.  Have a nice day.  *
 Q-Chem 5.4, Q-Chem, Inc., Pleasanton, CA (2021)
 Q-Chem 5.4.0 for Intel X86 EM64T Linux

User input:
--------------------------------------------------------------
$molecule
0 1
C	-0.334687	-0.485419	0.013104
C	0.097113	0.262481	1.112504
C	0.789113	1.460981	0.789804
H	-0.087287	-0.056919	2.149204
C	0.899413	1.652081	-0.599396
S	0.136513	0.330681	-1.473696
C	1.333013	2.402981	1.827704
H	1.120213	2.034381	2.849804
H	0.887313	3.415781	1.739304
H	2.433013	2.523381	1.739304
C	-0.334687	-1.926119	0.013104
H	-1.270087	-1.926319	0.553004
H	0.074813	-2.629919	0.722604
H	-0.808287	-2.445019	-0.807096
H	1.374113	2.474081	-1.148496
$end

$rem
JOBTYPE		SP
EXCHANGE	HF
CORRELATION	pRIMP2
BASIS		cc-pvtz
METHOD		rimp2
AUX_BASIS	rimp2-cc-pvtz
SOLVENT_METHOD	PCM
PURECART	11111
SYMMETRY	false
MEM_TOTAL	110000
SCF_CONVERGENCE = 6
THRESH=10
$end

$solvent
dielectric 4.90
$end
--------------------------------------------------------------

             Standard Nuclear Orientation (Angstroms)
    I     Atom           X                Y                Z
 ----------------------------------------------------------------
    1      C      -0.3346870000    -0.4854190000     0.0131040000
    2      C       0.0971130000     0.2624810000     1.1125040000
    3      C       0.7891130000     1.4609810000     0.7898040000
    4      H      -0.0872870000    -0.0569190000     2.1492040000
    5      C       0.8994130000     1.6520810000    -0.5993960000
    6      S       0.1365130000     0.3306810000    -1.4736960000
    7      C       1.3330130000     2.4029810000     1.8277040000
    8      H       1.1202130000     2.0343810000     2.8498040000
    9      H       0.8873130000     3.4157810000     1.7393040000
   10      H       2.4330130000     2.5233810000     1.7393040000
   11      C      -0.3346870000    -1.9261190000     0.0131040000
   12      H      -1.2700870000    -1.9263190000     0.5530040000
   13      H       0.0748130000    -2.6299190000     0.7226040000
   14      H      -0.8082870000    -2.4450190000    -0.8070960000
   15      H       1.3741130000     2.4740810000    -1.1484960000
 ----------------------------------------------------------------

   10    -629.4022299158      5.56e-07  Convergence criterion met
 Total energy in the final basis set =     -629.4022299158
        RIMP2         total energy =      -630.5842515647 a.u.

                    Orbital Energies (a.u.)
 --------------------------------------------------------------

 Alpha MOs
 -- Occupied --
-91.9752 -11.2729 -11.2579 -11.2477 -11.2326 -11.2271 -11.2150  -8.9754
 -6.6563  -6.6556  -6.6551  -1.1619  -1.0540  -0.9975  -0.9406  -0.8833
 -0.7438  -0.7223  -0.6474  -0.5850  -0.5760  -0.5644  -0.5586  -0.5435
 -0.5126  -0.4915  -0.4605  -0.4434  -0.3373  -0.2911

          Ground-State Mulliken Net Atomic Charges

     Atom                 Charge (a.u.)
  ----------------------------------------
      1 C                     0.021628
      2 C                    -0.278976
      3 C                     0.043343
      4 H                     0.176390
      5 C                    -0.250723
      6 S                     0.002945
      7 C                    -0.271277
      8 H                     0.101354
      9 H                     0.107020
     10 H                     0.106640
     11 C                    -0.377465
     12 H                     0.132226
     13 H                     0.160914
     14 H                     0.134067
     15 H                     0.191914
  ----------------------------------------
  Sum of atomic charges =     0.000000

                    Cartesian Multipole Moments
 -----------------------------------------------------------------
    Charge (ESU x 10^10)
                -0.0000
    Dipole Moment (Debye)
         X       0.1740      Y      -0.2406      Z       1.8587
       Tot       1.8823
    Quadrupole Moments (Debye-Ang)
        XX     -51.7944     XY       5.0881     YY     -44.5984
        XZ       0.2654     YZ      -0.5688     ZZ     -48.4541

 Total job time:  155.83s(wall), 154.97s(cpu)
        *  Thank you very much for using Q-Chem.  Have a nice day.  *
