 Q-Chem 5.4, Q-Chem, Inc., Pleasanton, CA (2021)
 Q-Chem 5.4.0 for Intel X86 EM64T Linux

User input:
--------------------------------------------------------------
$molecule
0 1
C	-0.063900	-0.573729	0.013912
C	0.011400	0.286571	1.113312
C	0.132000	1.665271	0.790612
H	-0.020700	-0.080829	2.150012
C	0.151300	1.885071	-0.598588
S	0.018300	0.365071	-1.472888
C	0.226900	2.748871	1.828512
H	0.189800	2.324771	2.850612
H	-0.605100	3.478371	1.740112
H	1.172900	3.322871	1.740112
C	-0.063900	-2.014429	0.013912
H	0.950900	-2.014129	0.383412
H	-0.344100	-2.718229	0.783712
H	0.260000	-2.533329	-0.876088
H	0.234000	2.830671	-1.147688
$end

$rem
JOBTYPE		SP
EXCHANGE	HF
CORRELATION	pRIMP2
BASIS		cc-pvtz
METHOD		rimp2
AUX_BASIS	rimp2-cc-pvtz
SOLVENT_METHOD	PCM
PURECART	11111
SYMMETRY	false
MEM_TOTAL	110000
SCF_CONVERGENCE = 6
THRESH=10
$end

$solvent
dielectric 4.90
$end
--------------------------------------------------------------

             Standard Nuclear Orientation (Angstroms)
    I     Atom           X                Y                Z
 ----------------------------------------------------------------
    1      C      -0.0639000000    -0.5737290000     0.0139120000
    2      C       0.0114000000     0.2865710000     1.1133120000
    3      C       0.1320000000     1.6652710000     0.7906120000
    4      H      -0.0207000000    -0.0808290000     2.1500120000
    5      C       0.1513000000     1.8850710000    -0.5985880000
    6      S       0.0183000000     0.3650710000    -1.4728880000
    7      C       0.2269000000     2.7488710000     1.8285120000
    8      H       0.1898000000     2.3247710000     2.8506120000
    9      H      -0.6051000000     3.4783710000     1.7401120000
   10      H       1.1729000000     3.3228710000     1.7401120000
   11      C      -0.0639000000    -2.0144290000     0.0139120000
   12      H       0.9509000000    -2.0141290000     0.3834120000
   13      H      -0.3441000000    -2.7182290000     0.7837120000
   14      H       0.2600000000    -2.5333290000    -0.8760880000
   15      H       0.2340000000     2.8306710000    -1.1476880000
 ----------------------------------------------------------------

   10    -629.4239567637      6.78e-07  Convergence criterion met
 Total energy in the final basis set =     -629.4239567637
        RIMP2         total energy =      -630.5996782191 a.u.

                    Orbital Energies (a.u.)
 --------------------------------------------------------------

 Alpha MOs
 -- Occupied --
-91.9792 -11.2853 -11.2487 -11.2470 -11.2265 -11.2226 -11.2215  -8.9789
 -6.6599  -6.6593  -6.6587  -1.1603  -1.0560  -0.9978  -0.9412  -0.8829
 -0.7431  -0.7193  -0.6498  -0.5875  -0.5735  -0.5678  -0.5569  -0.5451
 -0.5072  -0.4926  -0.4664  -0.4560  -0.3378  -0.2894

          Ground-State Mulliken Net Atomic Charges

     Atom                 Charge (a.u.)
  ----------------------------------------
      1 C                     0.068103
      2 C                    -0.304449
      3 C                     0.048349
      4 H                     0.174310
      5 C                    -0.280461
      6 S                     0.003612
      7 C                    -0.274639
      8 H                     0.101280
      9 H                     0.107229
     10 H                     0.107250
     11 C                    -0.386026
     12 H                     0.145543
     13 H                     0.160605
     14 H                     0.136708
     15 H                     0.192585
  ----------------------------------------
  Sum of atomic charges =     0.000000

                    Cartesian Multipole Moments
 -----------------------------------------------------------------
    Charge (ESU x 10^10)
                -0.0000
    Dipole Moment (Debye)
         X       0.7923      Y      -0.7120      Z       1.6247
       Tot       1.9428
    Quadrupole Moments (Debye-Ang)
        XX     -54.3386     XY      -0.6776     YY     -41.9057
        XZ      -0.1204     YZ      -0.3057     ZZ     -48.5779

 Total job time:  158.45s(wall), 157.44s(cpu)
        *  Thank you very much for using Q-Chem.  Have a nice day.  *
