 Q-Chem 5.4, Q-Chem, Inc., Pleasanton, CA (2021)
 Q-Chem 5.4.0 for Intel X86 EM64T Linux

User input:
--------------------------------------------------------------
$molecule
0 1
C	-0.433118	-0.417597	0.018946
C	0.121982	0.243903	1.118346
C	1.011582	1.304103	0.795646
H	-0.115018	-0.038597	2.155046
C	1.153482	1.473103	-0.593554
S	0.172682	0.304303	-1.467854
C	1.710782	2.137303	1.833546
H	1.437182	1.811303	2.855646
H	1.447782	3.212103	1.745146
H	2.814982	2.064903	1.745146
C	-0.433118	-1.858297	0.018946
H	-0.973018	-1.857997	-0.916454
H	0.276382	-2.562097	-0.390554
H	-1.253318	-2.377197	0.492546
H	1.763582	2.200203	-1.142654
$end

$rem
JOBTYPE		SP
EXCHANGE	HF
CORRELATION	pRIMP2
BASIS		cc-pvtz
METHOD		rimp2
AUX_BASIS	rimp2-cc-pvtz
SOLVENT_METHOD	PCM
PURECART	11111
SYMMETRY	false
MEM_TOTAL	110000
SCF_CONVERGENCE = 6
THRESH=10
$end

$solvent
dielectric 4.90
$end
--------------------------------------------------------------

             Standard Nuclear Orientation (Angstroms)
    I     Atom           X                Y                Z
 ----------------------------------------------------------------
    1      C      -0.4331180000    -0.4175970000     0.0189460000
    2      C       0.1219820000     0.2439030000     1.1183460000
    3      C       1.0115820000     1.3041030000     0.7956460000
    4      H      -0.1150180000    -0.0385970000     2.1550460000
    5      C       1.1534820000     1.4731030000    -0.5935540000
    6      S       0.1726820000     0.3043030000    -1.4678540000
    7      C       1.7107820000     2.1373030000     1.8335460000
    8      H       1.4371820000     1.8113030000     2.8556460000
    9      H       1.4477820000     3.2121030000     1.7451460000
   10      H       2.8149820000     2.0649030000     1.7451460000
   11      C      -0.4331180000    -1.8582970000     0.0189460000
   12      H      -0.9730180000    -1.8579970000    -0.9164540000
   13      H       0.2763820000    -2.5620970000    -0.3905540000
   14      H      -1.2533180000    -2.3771970000     0.4925460000
   15      H       1.7635820000     2.2002030000    -1.1426540000
 ----------------------------------------------------------------

   10    -629.3868196454      7.72e-07  Convergence criterion met
 Total energy in the final basis set =     -629.3868196454
        RIMP2         total energy =      -630.5716718694 a.u.

                    Orbital Energies (a.u.)
 --------------------------------------------------------------

 Alpha MOs
 -- Occupied --
-91.9783 -11.2692 -11.2593 -11.2479 -11.2385 -11.2276 -11.2107  -8.9785
 -6.6594  -6.6588  -6.6583  -1.1652  -1.0542  -0.9952  -0.9446  -0.8812
 -0.7499  -0.7227  -0.6443  -0.5882  -0.5769  -0.5715  -0.5508  -0.5461
 -0.5155  -0.4737  -0.4579  -0.4437  -0.3366  -0.3008

          Ground-State Mulliken Net Atomic Charges

     Atom                 Charge (a.u.)
  ----------------------------------------
      1 C                    -0.042240
      2 C                    -0.200310
      3 C                     0.021705
      4 H                     0.180523
      5 C                    -0.224319
      6 S                     0.004341
      7 C                    -0.269976
      8 H                     0.101903
      9 H                     0.106746
     10 H                     0.105312
     11 C                    -0.363189
     12 H                     0.109510
     13 H                     0.149395
     14 H                     0.124778
     15 H                     0.195822
  ----------------------------------------
  Sum of atomic charges =     0.000000

                    Cartesian Multipole Moments
 -----------------------------------------------------------------
    Charge (ESU x 10^10)
                -0.0000
    Dipole Moment (Debye)
         X       1.0832      Y       0.3069      Z       1.1186
       Tot       1.5870
    Quadrupole Moments (Debye-Ang)
        XX     -50.3107     XY       5.0337     YY     -46.4410
        XZ      -0.1837     YZ       0.9630     ZZ     -48.4094

 Total job time:  157.80s(wall), 155.05s(cpu)
        *  Thank you very much for using Q-Chem.  Have a nice day.  *
