 Q-Chem 5.4, Q-Chem, Inc., Pleasanton, CA (2021)
 Q-Chem 5.4.0 for Intel X86 EM64T Linux

User input:
--------------------------------------------------------------
$molecule
0 1
C	-0.234212	-0.535395	0.019394
C	0.061188	0.276105	1.118794
C	0.534488	1.576505	0.796094
H	-0.064912	-0.070395	2.155494
C	0.609988	1.783905	-0.593106
S	0.088088	0.350205	-1.467406
C	0.906588	2.598705	1.833994
H	0.760988	2.198705	2.856094
H	0.291788	3.518705	1.745594
H	1.968988	2.908305	1.745594
C	-0.234212	-1.976095	0.019394
H	0.135288	-1.976295	-0.995406
H	-1.004012	-2.679895	-0.260806
H	0.655788	-2.494995	0.343294
H	0.934688	2.675905	-1.142206
$end

$rem
JOBTYPE		SP
EXCHANGE	HF
CORRELATION	pRIMP2
BASIS		cc-pvtz
METHOD		rimp2
AUX_BASIS	rimp2-cc-pvtz
SOLVENT_METHOD	PCM
PURECART	11111
SYMMETRY	false
MEM_TOTAL	110000
SCF_CONVERGENCE = 6
THRESH=10
$end

$solvent
dielectric 4.90
$end
--------------------------------------------------------------

   10    -629.4131808799      5.59e-07  Convergence criterion met
 Total energy in the final basis set =     -629.4131808799
        RIMP2         total energy =      -630.5923547959 a.u.
 Total job time:  158.76s(wall), 157.50s(cpu)
        *  Thank you very much for using Q-Chem.  Have a nice day.  *
 Q-Chem 5.4, Q-Chem, Inc., Pleasanton, CA (2021)
 Q-Chem 5.4.0 for Intel X86 EM64T Linux

User input:
--------------------------------------------------------------
$molecule
0 1
C	-0.234212	-0.535395	0.019394
C	0.061188	0.276105	1.118794
C	0.534488	1.576505	0.796094
H	-0.064912	-0.070395	2.155494
C	0.609988	1.783905	-0.593106
S	0.088088	0.350205	-1.467406
C	0.906588	2.598705	1.833994
H	0.760988	2.198705	2.856094
H	0.291788	3.518705	1.745594
H	1.968988	2.908305	1.745594
C	-0.234212	-1.976095	0.019394
H	0.135288	-1.976295	-0.995406
H	-1.004012	-2.679895	-0.260806
H	0.655788	-2.494995	0.343294
H	0.934688	2.675905	-1.142206
$end

$rem
JOBTYPE		SP
EXCHANGE	HF
CORRELATION	pRIMP2
BASIS		cc-pvtz
METHOD		rimp2
AUX_BASIS	rimp2-cc-pvtz
SOLVENT_METHOD	PCM
PURECART	11111
SYMMETRY	false
MEM_TOTAL	110000
SCF_CONVERGENCE = 6
THRESH=10
$end

$solvent
dielectric 4.90
$end
--------------------------------------------------------------

             Standard Nuclear Orientation (Angstroms)
    I     Atom           X                Y                Z
 ----------------------------------------------------------------
    1      C      -0.2342120000    -0.5353950000     0.0193940000
    2      C       0.0611880000     0.2761050000     1.1187940000
    3      C       0.5344880000     1.5765050000     0.7960940000
    4      H      -0.0649120000    -0.0703950000     2.1554940000
    5      C       0.6099880000     1.7839050000    -0.5931060000
    6      S       0.0880880000     0.3502050000    -1.4674060000
    7      C       0.9065880000     2.5987050000     1.8339940000
    8      H       0.7609880000     2.1987050000     2.8560940000
    9      H       0.2917880000     3.5187050000     1.7455940000
   10      H       1.9689880000     2.9083050000     1.7455940000
   11      C      -0.2342120000    -1.9760950000     0.0193940000
   12      H       0.1352880000    -1.9762950000    -0.9954060000
   13      H      -1.0040120000    -2.6798950000    -0.2608060000
   14      H       0.6557880000    -2.4949950000     0.3432940000
   15      H       0.9346880000     2.6759050000    -1.1422060000
 ----------------------------------------------------------------

   10    -629.4131808799      5.59e-07  Convergence criterion met
 Total energy in the final basis set =     -629.4131808799
        RIMP2         total energy =      -630.5923547959 a.u.

                    Orbital Energies (a.u.)
 --------------------------------------------------------------

 Alpha MOs
 -- Occupied --
-91.9785 -11.2737 -11.2589 -11.2470 -11.2311 -11.2270 -11.2151  -8.9786
 -6.6595  -6.6590  -6.6584  -1.1623  -1.0554  -0.9950  -0.9456  -0.8811
 -0.7483  -0.7193  -0.6471  -0.5913  -0.5763  -0.5656  -0.5526  -0.5477
 -0.5095  -0.4853  -0.4643  -0.4445  -0.3381  -0.3016

          Ground-State Mulliken Net Atomic Charges

     Atom                 Charge (a.u.)
  ----------------------------------------
      1 C                     0.044778
      2 C                    -0.275513
      3 C                     0.049014
      4 H                     0.179248
      5 C                    -0.256750
      6 S                    -0.003638
      7 C                    -0.271936
      8 H                     0.101829
      9 H                     0.107217
     10 H                     0.106551
     11 C                    -0.371306
     12 H                     0.119591
     13 H                     0.143202
     14 H                     0.132817
     15 H                     0.194896
  ----------------------------------------
  Sum of atomic charges =     0.000000

                    Cartesian Multipole Moments
 -----------------------------------------------------------------
    Charge (ESU x 10^10)
                -0.0000
    Dipole Moment (Debye)
         X       0.7909      Y      -0.0074      Z       0.9083
       Tot       1.2044
    Quadrupole Moments (Debye-Ang)
        XX     -52.9387     XY       2.4408     YY     -43.4051
        XZ       0.3765     YZ       1.4733     ZZ     -48.7072

 Total job time:  155.38s(wall), 154.60s(cpu)
        *  Thank you very much for using Q-Chem.  Have a nice day.  *
