 Q-Chem 5.4, Q-Chem, Inc., Pleasanton, CA (2021)
 Q-Chem 5.4.0 for Intel X86 EM64T Linux

User input:
--------------------------------------------------------------
$molecule
0 1
C	-0.338058	-0.485419	0.019788
C	0.093742	0.262481	1.119188
C	0.785742	1.460981	0.796488
H	-0.090658	-0.056919	2.155888
C	0.896042	1.652081	-0.592712
S	0.133142	0.330681	-1.467012
C	1.329642	2.402981	1.834388
H	1.116842	2.034381	2.856488
H	0.883942	3.415781	1.745988
H	2.429642	2.523381	1.745988
C	-0.338058	-1.926119	0.019788
H	-0.707358	-1.926319	-0.995112
H	-1.107858	-2.629919	0.299888
H	0.551942	-2.445019	-0.304112
H	1.370742	2.474081	-1.141812
$end

$rem
JOBTYPE		SP
EXCHANGE	HF
CORRELATION	pRIMP2
BASIS		cc-pvtz
METHOD		rimp2
AUX_BASIS	rimp2-cc-pvtz
SOLVENT_METHOD	PCM
PURECART	11111
SYMMETRY	false
MEM_TOTAL	110000
SCF_CONVERGENCE = 6
THRESH=10
$end

$solvent
dielectric 4.90
$end
--------------------------------------------------------------

   10    -629.4031460092      5.30e-07  Convergence criterion met
 Total energy in the final basis set =     -629.4031460092
        RIMP2         total energy =      -630.5847169935 a.u.
 Total job time:  156.71s(wall), 155.49s(cpu)
        *  Thank you very much for using Q-Chem.  Have a nice day.  *
 Q-Chem 5.4, Q-Chem, Inc., Pleasanton, CA (2021)
 Q-Chem 5.4.0 for Intel X86 EM64T Linux

User input:
--------------------------------------------------------------
$molecule
0 1
C	-0.338058	-0.485419	0.019788
C	0.093742	0.262481	1.119188
C	0.785742	1.460981	0.796488
H	-0.090658	-0.056919	2.155888
C	0.896042	1.652081	-0.592712
S	0.133142	0.330681	-1.467012
C	1.329642	2.402981	1.834388
H	1.116842	2.034381	2.856488
H	0.883942	3.415781	1.745988
H	2.429642	2.523381	1.745988
C	-0.338058	-1.926119	0.019788
H	-0.707358	-1.926319	-0.995112
H	-1.107858	-2.629919	0.299888
H	0.551942	-2.445019	-0.304112
H	1.370742	2.474081	-1.141812
$end

$rem
JOBTYPE		SP
EXCHANGE	HF
CORRELATION	pRIMP2
BASIS		cc-pvtz
METHOD		rimp2
AUX_BASIS	rimp2-cc-pvtz
SOLVENT_METHOD	PCM
PURECART	11111
SYMMETRY	false
MEM_TOTAL	110000
SCF_CONVERGENCE = 6
THRESH=10
$end

$solvent
dielectric 4.90
$end
--------------------------------------------------------------

             Standard Nuclear Orientation (Angstroms)
    I     Atom           X                Y                Z
 ----------------------------------------------------------------
    1      C      -0.3380580000    -0.4854190000     0.0197880000
    2      C       0.0937420000     0.2624810000     1.1191880000
    3      C       0.7857420000     1.4609810000     0.7964880000
    4      H      -0.0906580000    -0.0569190000     2.1558880000
    5      C       0.8960420000     1.6520810000    -0.5927120000
    6      S       0.1331420000     0.3306810000    -1.4670120000
    7      C       1.3296420000     2.4029810000     1.8343880000
    8      H       1.1168420000     2.0343810000     2.8564880000
    9      H       0.8839420000     3.4157810000     1.7459880000
   10      H       2.4296420000     2.5233810000     1.7459880000
   11      C      -0.3380580000    -1.9261190000     0.0197880000
   12      H      -0.7073580000    -1.9263190000    -0.9951120000
   13      H      -1.1078580000    -2.6299190000     0.2998880000
   14      H       0.5519420000    -2.4450190000    -0.3041120000
   15      H       1.3707420000     2.4740810000    -1.1418120000
 ----------------------------------------------------------------

   10    -629.4031460092      5.30e-07  Convergence criterion met
 Total energy in the final basis set =     -629.4031460092
        RIMP2         total energy =      -630.5847169935 a.u.

                    Orbital Energies (a.u.)
 --------------------------------------------------------------

 Alpha MOs
 -- Occupied --
-91.9797 -11.2677 -11.2632 -11.2474 -11.2330 -11.2271 -11.2137  -8.9797
 -6.6606  -6.6600  -6.6594  -1.1633  -1.0549  -0.9948  -0.9455  -0.8811
 -0.7489  -0.7203  -0.6459  -0.5915  -0.5755  -0.5667  -0.5528  -0.5470
 -0.5118  -0.4781  -0.4639  -0.4440  -0.3374  -0.3023

          Ground-State Mulliken Net Atomic Charges

     Atom                 Charge (a.u.)
  ----------------------------------------
      1 C                     0.001867
      2 C                    -0.238123
      3 C                     0.035046
      4 H                     0.178825
      5 C                    -0.244018
      6 S                     0.000978
      7 C                    -0.271291
      8 H                     0.101949
      9 H                     0.106798
     10 H                     0.105976
     11 C                    -0.360952
     12 H                     0.109563
     13 H                     0.147899
     14 H                     0.130147
     15 H                     0.195335
  ----------------------------------------
  Sum of atomic charges =     0.000000

                    Cartesian Multipole Moments
 -----------------------------------------------------------------
    Charge (ESU x 10^10)
                -0.0000
    Dipole Moment (Debye)
         X       0.7190      Y       0.1444      Z       0.9744
       Tot       1.2195
    Quadrupole Moments (Debye-Ang)
        XX     -51.6258     XY       4.4857     YY     -44.6848
        XZ      -0.0240     YZ       1.1162     ZZ     -48.6490

 Total job time:  156.33s(wall), 155.44s(cpu)
        *  Thank you very much for using Q-Chem.  Have a nice day.  *
