 Q-Chem 5.4, Q-Chem, Inc., Pleasanton, CA (2021)
 Q-Chem 5.4.0 for Intel X86 EM64T Linux

User input:
--------------------------------------------------------------
$molecule
0 1
C	-0.117238	-0.566010	0.019883
C	0.032762	0.284490	1.119283
C	0.273062	1.647390	0.796583
H	-0.031338	-0.078710	2.155983
C	0.311462	1.864690	-0.592617
S	0.046462	0.362090	-1.466917
C	0.461962	2.718590	1.834483
H	0.388062	2.299390	2.856583
H	-0.303238	3.517890	1.746083
H	1.454462	3.207890	1.746083
C	-0.117238	-2.006710	0.019883
H	-0.117138	-2.006410	-1.060117
H	0.701962	-2.710510	0.019983
H	-1.064338	-2.525610	0.019883
H	0.476262	2.799390	-1.141717
$end

$rem
JOBTYPE		SP
EXCHANGE	HF
CORRELATION	pRIMP2
BASIS		cc-pvtz
METHOD		rimp2
AUX_BASIS	rimp2-cc-pvtz
SOLVENT_METHOD	PCM
PURECART	11111
SYMMETRY	false
MEM_TOTAL	110000
SCF_CONVERGENCE = 6
THRESH=10
$end

$solvent
dielectric 4.90
$end
--------------------------------------------------------------

             Standard Nuclear Orientation (Angstroms)
    I     Atom           X                Y                Z
 ----------------------------------------------------------------
    1      C      -0.1172380000    -0.5660100000     0.0198830000
    2      C       0.0327620000     0.2844900000     1.1192830000
    3      C       0.2730620000     1.6473900000     0.7965830000
    4      H      -0.0313380000    -0.0787100000     2.1559830000
    5      C       0.3114620000     1.8646900000    -0.5926170000
    6      S       0.0464620000     0.3620900000    -1.4669170000
    7      C       0.4619620000     2.7185900000     1.8344830000
    8      H       0.3880620000     2.2993900000     2.8565830000
    9      H      -0.3032380000     3.5178900000     1.7460830000
   10      H       1.4544620000     3.2078900000     1.7460830000
   11      C      -0.1172380000    -2.0067100000     0.0198830000
   12      H      -0.1171380000    -2.0064100000    -1.0601170000
   13      H       0.7019620000    -2.7105100000     0.0199830000
   14      H      -1.0643380000    -2.5256100000     0.0198830000
   15      H       0.4762620000     2.7993900000    -1.1417170000
 ----------------------------------------------------------------

   10    -629.4181109037      5.40e-07  Convergence criterion met
 Total energy in the final basis set =     -629.4181109037
        RIMP2         total energy =      -630.5965285525 a.u.

                    Orbital Energies (a.u.)
 --------------------------------------------------------------

 Alpha MOs
 -- Occupied --
-91.9805 -11.2737 -11.2586 -11.2471 -11.2299 -11.2269 -11.2154  -8.9804
 -6.6613  -6.6607  -6.6601  -1.1612  -1.0550  -0.9952  -0.9464  -0.8816
 -0.7481  -0.7188  -0.6481  -0.5908  -0.5757  -0.5665  -0.5533  -0.5474
 -0.5097  -0.4841  -0.4650  -0.4435  -0.3382  -0.3042

          Ground-State Mulliken Net Atomic Charges

     Atom                 Charge (a.u.)
  ----------------------------------------
      1 C                     0.050824
      2 C                    -0.263524
      3 C                     0.041330
      4 H                     0.179977
      5 C                    -0.258818
      6 S                    -0.002830
      7 C                    -0.273188
      8 H                     0.101897
      9 H                     0.106816
     10 H                     0.106786
     11 C                    -0.365523
     12 H                     0.112539
     13 H                     0.141262
     14 H                     0.126925
     15 H                     0.195529
  ----------------------------------------
  Sum of atomic charges =     0.000000

                    Cartesian Multipole Moments
 -----------------------------------------------------------------
    Charge (ESU x 10^10)
                -0.0000
    Dipole Moment (Debye)
         X       0.2604      Y       0.0754      Z       0.8598
       Tot       0.9015
    Quadrupole Moments (Debye-Ang)
        XX     -53.4389     XY       1.4161     YY     -42.5131
        XZ       0.0750     YZ       1.4670     ZZ     -48.8177

 Total job time:  156.72s(wall), 155.22s(cpu)
        *  Thank you very much for using Q-Chem.  Have a nice day.  *
