 Q-Chem 5.4, Q-Chem, Inc., Pleasanton, CA (2021)
 Q-Chem 5.4.0 for Intel X86 EM64T Linux

User input:
--------------------------------------------------------------
$molecule
0 1
C	-0.000593	-0.576309	0.019884
C	-0.000593	0.287291	1.119284
C	-0.000493	1.671191	0.796584
H	-0.000593	-0.081509	2.155984
C	-0.000493	1.891891	-0.592616
S	-0.000593	0.366091	-1.466916
C	-0.000493	2.758991	1.834484
H	-0.000493	2.333291	2.856584
H	-0.892893	3.413291	1.746084
H	0.891907	3.413191	1.746084
C	-0.000593	-2.017009	0.019884
H	-0.000493	-2.017209	-1.060116
H	-0.819793	-2.720809	0.019784
H	0.946507	-2.535909	0.019884
H	-0.000493	2.841091	-1.141716
$end

$rem
JOBTYPE		SP
EXCHANGE	HF
CORRELATION	pRIMP2
BASIS		cc-pvtz
METHOD		rimp2
AUX_BASIS	rimp2-cc-pvtz
SOLVENT_METHOD	PCM
PURECART	11111
SYMMETRY	false
MEM_TOTAL	110000
SCF_CONVERGENCE = 6
THRESH=10
$end

$solvent
dielectric 4.90
$end
--------------------------------------------------------------

   10    -629.4206010706      5.44e-07  Convergence criterion met
 Total energy in the final basis set =     -629.4206010706
        RIMP2         total energy =      -630.5984476238 a.u.
 Total job time:  158.17s(wall), 155.68s(cpu)
        *  Thank you very much for using Q-Chem.  Have a nice day.  *
 Q-Chem 5.4, Q-Chem, Inc., Pleasanton, CA (2021)
 Q-Chem 5.4.0 for Intel X86 EM64T Linux

User input:
--------------------------------------------------------------
$molecule
0 1
C	-0.000593	-0.576309	0.019884
C	-0.000593	0.287291	1.119284
C	-0.000493	1.671191	0.796584
H	-0.000593	-0.081509	2.155984
C	-0.000493	1.891891	-0.592616
S	-0.000593	0.366091	-1.466916
C	-0.000493	2.758991	1.834484
H	-0.000493	2.333291	2.856584
H	-0.892893	3.413291	1.746084
H	0.891907	3.413191	1.746084
C	-0.000593	-2.017009	0.019884
H	-0.000493	-2.017209	-1.060116
H	-0.819793	-2.720809	0.019784
H	0.946507	-2.535909	0.019884
H	-0.000493	2.841091	-1.141716
$end

$rem
JOBTYPE		SP
EXCHANGE	HF
CORRELATION	pRIMP2
BASIS		cc-pvtz
METHOD		rimp2
AUX_BASIS	rimp2-cc-pvtz
SOLVENT_METHOD	PCM
PURECART	11111
SYMMETRY	false
MEM_TOTAL	110000
SCF_CONVERGENCE = 6
THRESH=10
$end

$solvent
dielectric 4.90
$end
--------------------------------------------------------------

             Standard Nuclear Orientation (Angstroms)
    I     Atom           X                Y                Z
 ----------------------------------------------------------------
    1      C      -0.0005930000    -0.5763090000     0.0198840000
    2      C      -0.0005930000     0.2872910000     1.1192840000
    3      C      -0.0004930000     1.6711910000     0.7965840000
    4      H      -0.0005930000    -0.0815090000     2.1559840000
    5      C      -0.0004930000     1.8918910000    -0.5926160000
    6      S      -0.0005930000     0.3660910000    -1.4669160000
    7      C      -0.0004930000     2.7589910000     1.8344840000
    8      H      -0.0004930000     2.3332910000     2.8565840000
    9      H      -0.8928930000     3.4132910000     1.7460840000
   10      H       0.8919070000     3.4131910000     1.7460840000
   11      C      -0.0005930000    -2.0170090000     0.0198840000
   12      H      -0.0004930000    -2.0172090000    -1.0601160000
   13      H      -0.8197930000    -2.7208090000     0.0197840000
   14      H       0.9465070000    -2.5359090000     0.0198840000
   15      H      -0.0004930000     2.8410910000    -1.1417160000
 ----------------------------------------------------------------

   10    -629.4206010706      5.44e-07  Convergence criterion met
 Total energy in the final basis set =     -629.4206010706
        RIMP2         total energy =      -630.5984476238 a.u.

                    Orbital Energies (a.u.)
 --------------------------------------------------------------

 Alpha MOs
 -- Occupied --
-91.9808 -11.2748 -11.2578 -11.2471 -11.2291 -11.2268 -11.2160  -8.9806
 -6.6615  -6.6610  -6.6604  -1.1609  -1.0551  -0.9953  -0.9464  -0.8817
 -0.7480  -0.7185  -0.6482  -0.5915  -0.5754  -0.5659  -0.5536  -0.5474
 -0.5089  -0.4859  -0.4650  -0.4438  -0.3384  -0.3042

          Ground-State Mulliken Net Atomic Charges

     Atom                 Charge (a.u.)
  ----------------------------------------
      1 C                     0.059892
      2 C                    -0.263275
      3 C                     0.039913
      4 H                     0.180144
      5 C                    -0.260495
      6 S                    -0.002788
      7 C                    -0.273356
      8 H                     0.101933
      9 H                     0.106817
     10 H                     0.106855
     11 C                    -0.371451
     12 H                     0.112416
     13 H                     0.142640
     14 H                     0.125280
     15 H                     0.195475
  ----------------------------------------
  Sum of atomic charges =     0.000000

                    Cartesian Multipole Moments
 -----------------------------------------------------------------
    Charge (ESU x 10^10)
                -0.0000
    Dipole Moment (Debye)
         X       0.0177      Y       0.0387      Z       0.8450
       Tot       0.8461
    Quadrupole Moments (Debye-Ang)
        XX     -53.6870     XY       0.1027     YY     -42.1841
        XZ       0.0152     YZ       1.4966     ZZ     -48.8422

 Total job time:  156.31s(wall), 154.90s(cpu)
        *  Thank you very much for using Q-Chem.  Have a nice day.  *
