 Q-Chem 5.4, Q-Chem, Inc., Pleasanton, CA (2021)
 Q-Chem 5.4.0 for Intel X86 EM64T Linux

User input:
--------------------------------------------------------------
$molecule
0 1
C	-0.514791	-0.333972	0.015607
C	0.146809	0.221128	1.115007
C	1.206909	1.110628	0.792307
H	-0.135691	-0.015972	2.151707
C	1.376009	1.252428	-0.596893
S	0.207109	0.271728	-1.471193
C	2.040209	1.809828	1.830207
H	1.714109	1.536228	2.852307
H	1.967809	2.914028	1.741807
H	3.115009	1.546728	1.741807
C	-0.514791	-1.774672	0.015607
H	-1.594791	-1.774872	0.015507
H	-0.514891	-2.478472	0.834807
H	-0.514791	-2.293572	-0.931493
H	2.103109	1.862628	-1.145993
$end

$rem
JOBTYPE		SP
EXCHANGE	HF
CORRELATION	pRIMP2
BASIS		cc-pvtz
METHOD		rimp2
AUX_BASIS	rimp2-cc-pvtz
SOLVENT_METHOD	PCM
PURECART	11111
SYMMETRY	false
MEM_TOTAL	110000
SCF_CONVERGENCE = 6
THRESH=10
$end

$solvent
dielectric 4.90
$end
--------------------------------------------------------------

             Standard Nuclear Orientation (Angstroms)
    I     Atom           X                Y                Z
 ----------------------------------------------------------------
    1      C      -0.5147910000    -0.3339720000     0.0156070000
    2      C       0.1468090000     0.2211280000     1.1150070000
    3      C       1.2069090000     1.1106280000     0.7923070000
    4      H      -0.1356910000    -0.0159720000     2.1517070000
    5      C       1.3760090000     1.2524280000    -0.5968930000
    6      S       0.2071090000     0.2717280000    -1.4711930000
    7      C       2.0402090000     1.8098280000     1.8302070000
    8      H       1.7141090000     1.5362280000     2.8523070000
    9      H       1.9678090000     2.9140280000     1.7418070000
   10      H       3.1150090000     1.5467280000     1.7418070000
   11      C      -0.5147910000    -1.7746720000     0.0156070000
   12      H      -1.5947910000    -1.7748720000     0.0155070000
   13      H      -0.5148910000    -2.4784720000     0.8348070000
   14      H      -0.5147910000    -2.2935720000    -0.9314930000
   15      H       2.1031090000     1.8626280000    -1.1459930000
 ----------------------------------------------------------------

   11    -629.3597733332      3.96e-07  Convergence criterion met
 Total energy in the final basis set =     -629.3597733332
        RIMP2         total energy =      -630.5493977748 a.u.

                    Orbital Energies (a.u.)
 --------------------------------------------------------------

 Alpha MOs
 -- Occupied --
-91.9737 -11.2693 -11.2561 -11.2477 -11.2412 -11.2276 -11.2075  -8.9743
 -6.6552  -6.6544  -6.6540  -1.1666  -1.0539  -0.9959  -0.9408  -0.8817
 -0.7477  -0.7253  -0.6434  -0.5853  -0.5754  -0.5662  -0.5538  -0.5430
 -0.5155  -0.4920  -0.4583  -0.4323  -0.3359  -0.2838

          Ground-State Mulliken Net Atomic Charges

     Atom                 Charge (a.u.)
  ----------------------------------------
      1 C                    -0.051510
      2 C                    -0.195025
      3 C                     0.016855
      4 H                     0.181071
      5 C                    -0.221576
      6 S                     0.007526
      7 C                    -0.269730
      8 H                     0.101470
      9 H                     0.106867
     10 H                     0.104911
     11 C                    -0.388855
     12 H                     0.126291
     13 H                     0.152692
     14 H                     0.134249
     15 H                     0.194764
  ----------------------------------------
  Sum of atomic charges =     0.000000

                    Cartesian Multipole Moments
 -----------------------------------------------------------------
    Charge (ESU x 10^10)
                -0.0000
    Dipole Moment (Debye)
         X       1.0363      Y      -0.0612      Z       1.6336
       Tot       1.9355
    Quadrupole Moments (Debye-Ang)
        XX     -49.1764     XY       5.7084     YY     -48.2453
        XZ      -0.1424     YZ      -0.0426     ZZ     -47.8567

 Total job time:  169.51s(wall), 168.70s(cpu)
        *  Thank you very much for using Q-Chem.  Have a nice day.  *
