 Q-Chem 5.4, Q-Chem, Inc., Pleasanton, CA (2021)
 Q-Chem 5.4.0 for Intel X86 EM64T Linux

User input:
--------------------------------------------------------------
$molecule
0 1
C	-0.524005	-0.333974	0.017231
C	0.137595	0.221126	1.116631
C	1.197695	1.110626	0.793931
H	-0.144905	-0.015974	2.153331
C	1.366795	1.252426	-0.595269
S	0.197895	0.271726	-1.469569
C	2.030995	1.809826	1.831831
H	1.704895	1.536226	2.853931
H	1.958595	2.914026	1.743431
H	3.105795	1.546726	1.743431
C	-0.524005	-1.774674	0.017231
H	0.490895	-1.774374	-0.352069
H	-0.243905	-2.478474	0.787031
H	-0.847905	-2.293574	-0.872769
H	2.093895	1.862626	-1.144369
$end

$rem
JOBTYPE		SP
EXCHANGE	HF
CORRELATION	pRIMP2
BASIS		cc-pvtz
METHOD		rimp2
AUX_BASIS	rimp2-cc-pvtz
SOLVENT_METHOD	PCM
PURECART	11111
SYMMETRY	false
MEM_TOTAL	110000
SCF_CONVERGENCE = 6
THRESH=10
$end

$solvent
dielectric 4.90
$end
--------------------------------------------------------------

             Standard Nuclear Orientation (Angstroms)
    I     Atom           X                Y                Z
 ----------------------------------------------------------------
    1      C      -0.5240050000    -0.3339740000     0.0172310000
    2      C       0.1375950000     0.2211260000     1.1166310000
    3      C       1.1976950000     1.1106260000     0.7939310000
    4      H      -0.1449050000    -0.0159740000     2.1533310000
    5      C       1.3667950000     1.2524260000    -0.5952690000
    6      S       0.1978950000     0.2717260000    -1.4695690000
    7      C       2.0309950000     1.8098260000     1.8318310000
    8      H       1.7048950000     1.5362260000     2.8539310000
    9      H       1.9585950000     2.9140260000     1.7434310000
   10      H       3.1057950000     1.5467260000     1.7434310000
   11      C      -0.5240050000    -1.7746740000     0.0172310000
   12      H       0.4908950000    -1.7743740000    -0.3520690000
   13      H      -0.2439050000    -2.4784740000     0.7870310000
   14      H      -0.8479050000    -2.2935740000    -0.8727690000
   15      H       2.0938950000     1.8626260000    -1.1443690000
 ----------------------------------------------------------------

   10    -629.3727280230      6.04e-07  Convergence criterion met
 Total energy in the final basis set =     -629.3727280230
        RIMP2         total energy =      -630.5593276088 a.u.

                    Orbital Energies (a.u.)
 --------------------------------------------------------------

 Alpha MOs
 -- Occupied --
-91.9729 -11.2696 -11.2661 -11.2495 -11.2386 -11.2284 -11.2155  -8.9741
 -6.6550  -6.6542  -6.6538  -1.1722  -1.0584  -0.9958  -0.9412  -0.8799
 -0.7505  -0.7254  -0.6469  -0.5864  -0.5836  -0.5651  -0.5535  -0.5464
 -0.5113  -0.4923  -0.4611  -0.4413  -0.3404  -0.2887

          Ground-State Mulliken Net Atomic Charges

     Atom                 Charge (a.u.)
  ----------------------------------------
      1 C                    -0.017316
      2 C                    -0.225423
      3 C                     0.020826
      4 H                     0.180117
      5 C                    -0.228355
      6 S                    -0.002705
      7 C                    -0.269072
      8 H                     0.102066
      9 H                     0.107786
     10 H                     0.105829
     11 C                    -0.366850
     12 H                     0.130723
     13 H                     0.149056
     14 H                     0.117752
     15 H                     0.195567
  ----------------------------------------
  Sum of atomic charges =     0.000000

                    Cartesian Multipole Moments
 -----------------------------------------------------------------
    Charge (ESU x 10^10)
                -0.0000
    Dipole Moment (Debye)
         X       2.1736      Y      -0.2090      Z       1.4774
       Tot       2.6364
    Quadrupole Moments (Debye-Ang)
        XX     -50.1463     XY       3.7226     YY     -47.9298
        XZ       0.1880     YZ       0.3017     ZZ     -48.1989

 Total job time:  162.84s(wall), 161.12s(cpu)
        *  Thank you very much for using Q-Chem.  Have a nice day.  *
