 Q-Chem 5.4, Q-Chem, Inc., Pleasanton, CA (2021)
 Q-Chem 5.4.0 for Intel X86 EM64T Linux

User input:
--------------------------------------------------------------
$molecule
0 1
C	-0.177503	-0.553191	0.019521
C	0.045997	0.281009	1.118921
C	0.404197	1.617709	0.796221
H	-0.049403	-0.075291	2.155621
C	0.461397	1.830809	-0.592979
S	0.066397	0.357109	-1.467279
C	0.685797	2.668409	1.834121
H	0.575597	2.257309	2.856221
H	-0.006803	3.531409	1.745721
H	1.717097	3.069409	1.745721
C	-0.177503	-1.993891	0.019521
H	0.362597	-1.993591	-0.915679
H	0.531897	-2.697691	0.429121
H	-0.997703	-2.512791	-0.454079
H	0.707097	2.747709	-1.142079
$end

$rem
JOBTYPE		SP
EXCHANGE	HF
CORRELATION	pRIMP2
BASIS		cc-pvtz
METHOD		rimp2
AUX_BASIS	rimp2-cc-pvtz
SOLVENT_METHOD	PCM
PURECART	11111
SYMMETRY	false
MEM_TOTAL	110000
SCF_CONVERGENCE = 6
THRESH=10
$end

$solvent
dielectric 4.90
$end
--------------------------------------------------------------

             Standard Nuclear Orientation (Angstroms)
    I     Atom           X                Y                Z
 ----------------------------------------------------------------
    1      C      -0.1775030000    -0.5531910000     0.0195210000
    2      C       0.0459970000     0.2810090000     1.1189210000
    3      C       0.4041970000     1.6177090000     0.7962210000
    4      H      -0.0494030000    -0.0752910000     2.1556210000
    5      C       0.4613970000     1.8308090000    -0.5929790000
    6      S       0.0663970000     0.3571090000    -1.4672790000
    7      C       0.6857970000     2.6684090000     1.8341210000
    8      H       0.5755970000     2.2573090000     2.8562210000
    9      H      -0.0068030000     3.5314090000     1.7457210000
   10      H       1.7170970000     3.0694090000     1.7457210000
   11      C      -0.1775030000    -1.9938910000     0.0195210000
   12      H       0.3625970000    -1.9935910000    -0.9156790000
   13      H       0.5318970000    -2.6976910000     0.4291210000
   14      H      -0.9977030000    -2.5127910000    -0.4540790000
   15      H       0.7070970000     2.7477090000    -1.1420790000
 ----------------------------------------------------------------

   10    -629.4164254683      6.04e-07  Convergence criterion met
 Total energy in the final basis set =     -629.4164254683
        RIMP2         total energy =      -630.5943508313 a.u.

                    Orbital Energies (a.u.)
 --------------------------------------------------------------

 Alpha MOs
 -- Occupied --
-91.9785 -11.2760 -11.2572 -11.2469 -11.2294 -11.2268 -11.2162  -8.9786
 -6.6596  -6.6590  -6.6584  -1.1616  -1.0555  -0.9951  -0.9457  -0.8813
 -0.7476  -0.7189  -0.6484  -0.5896  -0.5764  -0.5652  -0.5534  -0.5475
 -0.5097  -0.4861  -0.4644  -0.4473  -0.3390  -0.2990

          Ground-State Mulliken Net Atomic Charges

     Atom                 Charge (a.u.)
  ----------------------------------------
      1 C                     0.050918
      2 C                    -0.285936
      3 C                     0.049661
      4 H                     0.180139
      5 C                    -0.259620
      6 S                    -0.004181
      7 C                    -0.272597
      8 H                     0.101713
      9 H                     0.107241
     10 H                     0.106848
     11 C                    -0.371325
     12 H                     0.122316
     13 H                     0.153214
     14 H                     0.126877
     15 H                     0.194730
  ----------------------------------------
  Sum of atomic charges =     0.000000

                    Cartesian Multipole Moments
 -----------------------------------------------------------------
    Charge (ESU x 10^10)
                -0.0000
    Dipole Moment (Debye)
         X       0.7166      Y      -0.1076      Z       0.9149
       Tot       1.1671
    Quadrupole Moments (Debye-Ang)
        XX     -53.4357     XY       1.3733     YY     -42.7850
        XZ       0.3778     YZ       1.3255     ZZ     -48.7382

 Total job time:  155.56s(wall), 154.56s(cpu)
        *  Thank you very much for using Q-Chem.  Have a nice day.  *
