 Q-Chem 5.4, Q-Chem, Inc., Pleasanton, CA (2021)
 Q-Chem 5.4.0 for Intel X86 EM64T Linux

User input:
--------------------------------------------------------------
$molecule
0 1
C	-0.062069	-0.573727	0.018946
C	0.013231	0.286573	1.118346
C	0.133831	1.665273	0.795646
H	-0.018869	-0.080827	2.155046
C	0.153131	1.885073	-0.593554
S	0.020131	0.365073	-1.467854
C	0.228731	2.748873	1.833546
H	0.191631	2.324773	2.855646
H	-0.603269	3.478373	1.745146
H	1.174731	3.322873	1.745146
C	-0.062069	-2.014427	0.018946
H	0.478031	-2.014627	-0.916254
H	-0.771469	-2.718227	-0.390654
H	0.758131	-2.533327	0.492546
H	0.235831	2.830673	-1.142654
$end

$rem
JOBTYPE		SP
EXCHANGE	HF
CORRELATION	pRIMP2
BASIS		cc-pvtz
METHOD		rimp2
AUX_BASIS	rimp2-cc-pvtz
SOLVENT_METHOD	PCM
PURECART	11111
SYMMETRY	false
MEM_TOTAL	110000
SCF_CONVERGENCE = 6
THRESH=10
$end

$solvent
dielectric 4.90
$end
--------------------------------------------------------------

             Standard Nuclear Orientation (Angstroms)
    I     Atom           X                Y                Z
 ----------------------------------------------------------------
    1      C      -0.0620690000    -0.5737270000     0.0189460000
    2      C       0.0132310000     0.2865730000     1.1183460000
    3      C       0.1338310000     1.6652730000     0.7956460000
    4      H      -0.0188690000    -0.0808270000     2.1550460000
    5      C       0.1531310000     1.8850730000    -0.5935540000
    6      S       0.0201310000     0.3650730000    -1.4678540000
    7      C       0.2287310000     2.7488730000     1.8335460000
    8      H       0.1916310000     2.3247730000     2.8556460000
    9      H      -0.6032690000     3.4783730000     1.7451460000
   10      H       1.1747310000     3.3228730000     1.7451460000
   11      C      -0.0620690000    -2.0144270000     0.0189460000
   12      H       0.4780310000    -2.0146270000    -0.9162540000
   13      H      -0.7714690000    -2.7182270000    -0.3906540000
   14      H       0.7581310000    -2.5333270000     0.4925460000
   15      H       0.2358310000     2.8306730000    -1.1426540000
 ----------------------------------------------------------------

   10    -629.4216156361      5.82e-07  Convergence criterion met
 Total energy in the final basis set =     -629.4216156361
        RIMP2         total energy =      -630.5987409346 a.u.

                    Orbital Energies (a.u.)
 --------------------------------------------------------------

 Alpha MOs
 -- Occupied --
-91.9790 -11.2776 -11.2560 -11.2470 -11.2285 -11.2268 -11.2171  -8.9790
 -6.6599  -6.6594  -6.6588  -1.1609  -1.0554  -0.9956  -0.9456  -0.8818
 -0.7472  -0.7186  -0.6478  -0.5914  -0.5758  -0.5666  -0.5521  -0.5476
 -0.5084  -0.4880  -0.4648  -0.4478  -0.3388  -0.2997

          Ground-State Mulliken Net Atomic Charges

     Atom                 Charge (a.u.)
  ----------------------------------------
      1 C                     0.057145
      2 C                    -0.274304
      3 C                     0.041887
      4 H                     0.180591
      5 C                    -0.260964
      6 S                    -0.003059
      7 C                    -0.273053
      8 H                     0.101648
      9 H                     0.107164
     10 H                     0.106983
     11 C                    -0.372910
     12 H                     0.117616
     13 H                     0.143635
     14 H                     0.133143
     15 H                     0.194478
  ----------------------------------------
  Sum of atomic charges =     0.000000

                    Cartesian Multipole Moments
 -----------------------------------------------------------------
    Charge (ESU x 10^10)
                -0.0000
    Dipole Moment (Debye)
         X       0.4724      Y      -0.1385      Z       0.9162
       Tot       1.0401
    Quadrupole Moments (Debye-Ang)
        XX     -53.8555     XY       0.1046     YY     -42.1555
        XZ       0.3320     YZ       1.4740     ZZ     -48.7682

 Total job time:  159.04s(wall), 157.18s(cpu)
        *  Thank you very much for using Q-Chem.  Have a nice day.  *
