 Q-Chem 5.4, Q-Chem, Inc., Pleasanton, CA (2021)
 Q-Chem 5.4.0 for Intel X86 EM64T Linux

User input:
--------------------------------------------------------------
$molecule
0 1
C	-0.514888	-0.333974	0.016152
C	0.146712	0.221126	1.115552
C	1.206812	1.110626	0.792852
H	-0.135788	-0.015974	2.152252
C	1.375912	1.252426	-0.596348
S	0.207012	0.271726	-1.470648
C	2.040112	1.809826	1.830752
H	1.714012	1.536226	2.852852
H	1.967712	2.914026	1.742352
H	3.114912	1.546726	1.742352
C	-0.514888	-1.774674	0.016152
H	-1.529688	-1.774374	-0.353348
H	-0.234688	-2.478474	-0.753648
H	-0.838788	-2.293574	0.906152
H	2.103012	1.862626	-1.145448
$end

$rem
JOBTYPE		SP
EXCHANGE	HF
CORRELATION	pRIMP2
BASIS		cc-pvtz
METHOD		rimp2
AUX_BASIS	rimp2-cc-pvtz
SOLVENT_METHOD	PCM
PURECART	11111
SYMMETRY	false
MEM_TOTAL	110000
SCF_CONVERGENCE = 6
THRESH=10
$end

$solvent
dielectric 4.90
$end
--------------------------------------------------------------

             Standard Nuclear Orientation (Angstroms)
    I     Atom           X                Y                Z
 ----------------------------------------------------------------
    1      C      -0.5148880000    -0.3339740000     0.0161520000
    2      C       0.1467120000     0.2211260000     1.1155520000
    3      C       1.2068120000     1.1106260000     0.7928520000
    4      H      -0.1357880000    -0.0159740000     2.1522520000
    5      C       1.3759120000     1.2524260000    -0.5963480000
    6      S       0.2070120000     0.2717260000    -1.4706480000
    7      C       2.0401120000     1.8098260000     1.8307520000
    8      H       1.7140120000     1.5362260000     2.8528520000
    9      H       1.9677120000     2.9140260000     1.7423520000
   10      H       3.1149120000     1.5467260000     1.7423520000
   11      C      -0.5148880000    -1.7746740000     0.0161520000
   12      H      -1.5296880000    -1.7743740000    -0.3533480000
   13      H      -0.2346880000    -2.4784740000    -0.7536480000
   14      H      -0.8387880000    -2.2935740000     0.9061520000
   15      H       2.1030120000     1.8626260000    -1.1454480000
 ----------------------------------------------------------------

   11    -629.3614550505      4.53e-07  Convergence criterion met
 Total energy in the final basis set =     -629.3614550505
        RIMP2         total energy =      -630.5506337309 a.u.

                    Orbital Energies (a.u.)
 --------------------------------------------------------------

 Alpha MOs
 -- Occupied --
-91.9753 -11.2713 -11.2546 -11.2481 -11.2417 -11.2278 -11.2074  -8.9758
 -6.6567  -6.6559  -6.6556  -1.1670  -1.0539  -0.9961  -0.9413  -0.8818
 -0.7488  -0.7253  -0.6414  -0.5864  -0.5758  -0.5726  -0.5505  -0.5435
 -0.5162  -0.4874  -0.4564  -0.4344  -0.3363  -0.2868

          Ground-State Mulliken Net Atomic Charges

     Atom                 Charge (a.u.)
  ----------------------------------------
      1 C                    -0.065869
      2 C                    -0.176184
      3 C                     0.013628
      4 H                     0.184112
      5 C                    -0.215323
      6 S                     0.004119
      7 C                    -0.269641
      8 H                     0.101530
      9 H                     0.106699
     10 H                     0.104793
     11 C                    -0.388404
     12 H                     0.123108
     13 H                     0.155741
     14 H                     0.125506
     15 H                     0.196184
  ----------------------------------------
  Sum of atomic charges =     0.000000

                    Cartesian Multipole Moments
 -----------------------------------------------------------------
    Charge (ESU x 10^10)
                -0.0000
    Dipole Moment (Debye)
         X       1.1870      Y       0.0720      Z       1.4516
       Tot       1.8765
    Quadrupole Moments (Debye-Ang)
        XX     -49.1380     XY       5.5858     YY     -48.2388
        XZ      -0.2982     YZ       0.4934     ZZ     -47.9118

 Total job time:  171.70s(wall), 168.93s(cpu)
        *  Thank you very much for using Q-Chem.  Have a nice day.  *
