 Q-Chem 5.4, Q-Chem, Inc., Pleasanton, CA (2021)
 Q-Chem 5.4.0 for Intel X86 EM64T Linux

User input:
--------------------------------------------------------------
$molecule
0 1
C	-0.582715	-0.237129	0.016152
C	0.165185	0.194671	1.115552
C	1.363685	0.886571	0.792852
H	-0.154215	0.010271	2.152252
C	1.554785	0.996871	-0.596348
S	0.233485	0.234071	-1.470648
C	2.305785	1.430471	1.830752
H	1.937085	1.217571	2.852852
H	2.426185	2.530371	1.742352
H	3.318585	0.984671	1.742352
C	-0.582715	-1.677829	0.016152
H	-1.597515	-1.677529	-0.353348
H	-0.302515	-2.381629	-0.753648
H	-0.906615	-2.196729	0.906152
H	2.376885	1.471471	-1.145448
$end

$rem
JOBTYPE		SP
EXCHANGE	HF
CORRELATION	pRIMP2
BASIS		cc-pvtz
METHOD		rimp2
AUX_BASIS	rimp2-cc-pvtz
SOLVENT_METHOD	PCM
PURECART	11111
SYMMETRY	false
MEM_TOTAL	110000
SCF_CONVERGENCE = 6
THRESH=10
$end

$solvent
dielectric 4.90
$end
--------------------------------------------------------------

             Standard Nuclear Orientation (Angstroms)
    I     Atom           X                Y                Z
 ----------------------------------------------------------------
    1      C      -0.5827150000    -0.2371290000     0.0161520000
    2      C       0.1651850000     0.1946710000     1.1155520000
    3      C       1.3636850000     0.8865710000     0.7928520000
    4      H      -0.1542150000     0.0102710000     2.1522520000
    5      C       1.5547850000     0.9968710000    -0.5963480000
    6      S       0.2334850000     0.2340710000    -1.4706480000
    7      C       2.3057850000     1.4304710000     1.8307520000
    8      H       1.9370850000     1.2175710000     2.8528520000
    9      H       2.4261850000     2.5303710000     1.7423520000
   10      H       3.3185850000     0.9846710000     1.7423520000
   11      C      -0.5827150000    -1.6778290000     0.0161520000
   12      H      -1.5975150000    -1.6775290000    -0.3533480000
   13      H      -0.3025150000    -2.3816290000    -0.7536480000
   14      H      -0.9066150000    -2.1967290000     0.9061520000
   15      H       2.3768850000     1.4714710000    -1.1454480000
 ----------------------------------------------------------------

   11    -629.3364594503      6.55e-07  Convergence criterion met
 Total energy in the final basis set =     -629.3364594503
        RIMP2         total energy =      -630.5286357506 a.u.

                    Orbital Energies (a.u.)
 --------------------------------------------------------------

 Alpha MOs
 -- Occupied --
-91.9745 -11.2817 -11.2513 -11.2486 -11.2400 -11.2285 -11.2039  -8.9753
 -6.6562  -6.6553  -6.6551  -1.1717  -1.0546  -0.9972  -0.9402  -0.8812
 -0.7516  -0.7295  -0.6405  -0.5883  -0.5768  -0.5722  -0.5506  -0.5428
 -0.5185  -0.4868  -0.4565  -0.4228  -0.3351  -0.2860

          Ground-State Mulliken Net Atomic Charges

     Atom                 Charge (a.u.)
  ----------------------------------------
      1 C                    -0.119622
      2 C                    -0.110165
      3 C                    -0.017184
      4 H                     0.187448
      5 C                    -0.183106
      6 S                     0.009675
      7 C                    -0.268930
      8 H                     0.101833
      9 H                     0.106367
     10 H                     0.103913
     11 C                    -0.398630
     12 H                     0.122356
     13 H                     0.147775
     14 H                     0.120057
     15 H                     0.198213
  ----------------------------------------
  Sum of atomic charges =     0.000000

                    Cartesian Multipole Moments
 -----------------------------------------------------------------
    Charge (ESU x 10^10)
                -0.0000
    Dipole Moment (Debye)
         X       1.9499      Y       0.1524      Z       1.5565
       Tot       2.4996
    Quadrupole Moments (Debye-Ang)
        XX     -47.8576     XY       5.1338     YY     -50.1255
        XZ      -0.5102     YZ       0.4446     ZZ     -47.5119

 Total job time:  176.80s(wall), 174.67s(cpu)
        *  Thank you very much for using Q-Chem.  Have a nice day.  *
