 Q-Chem 5.4, Q-Chem, Inc., Pleasanton, CA (2021)
 Q-Chem 5.4.0 for Intel X86 EM64T Linux

User input:
--------------------------------------------------------------
$molecule
0 1
C	0.004738	-0.576309	0.013913
C	0.004738	0.287291	1.113313
C	0.004838	1.671191	0.790613
H	0.004738	-0.081509	2.150013
C	0.004838	1.891891	-0.598587
S	0.004738	0.366091	-1.472887
C	0.004838	2.758991	1.828513
H	0.004838	2.333291	2.850613
H	-0.887562	3.413291	1.740113
H	0.897238	3.413191	1.740113
C	0.004738	-2.017009	0.013913
H	-1.010162	-2.017209	0.383213
H	0.284838	-2.720809	0.783713
H	-0.319162	-2.535909	-0.876087
H	0.004838	2.841091	-1.147687
$end

$rem
JOBTYPE		SP
EXCHANGE	HF
CORRELATION	pRIMP2
BASIS		cc-pvtz
METHOD		rimp2
AUX_BASIS	rimp2-cc-pvtz
SOLVENT_METHOD	PCM
PURECART	11111
SYMMETRY	false
MEM_TOTAL	110000
SCF_CONVERGENCE = 6
THRESH=10
$end

$solvent
dielectric 4.90
$end
--------------------------------------------------------------

   10    -629.4240255663      6.75e-07  Convergence criterion met
 Total energy in the final basis set =     -629.4240255663
        RIMP2         total energy =      -630.5997917460 a.u.
 Total job time:  157.48s(wall), 155.17s(cpu)
        *  Thank you very much for using Q-Chem.  Have a nice day.  *
 Q-Chem 5.4, Q-Chem, Inc., Pleasanton, CA (2021)
 Q-Chem 5.4.0 for Intel X86 EM64T Linux

User input:
--------------------------------------------------------------
$molecule
0 1
C	0.004738	-0.576309	0.013913
C	0.004738	0.287291	1.113313
C	0.004838	1.671191	0.790613
H	0.004738	-0.081509	2.150013
C	0.004838	1.891891	-0.598587
S	0.004738	0.366091	-1.472887
C	0.004838	2.758991	1.828513
H	0.004838	2.333291	2.850613
H	-0.887562	3.413291	1.740113
H	0.897238	3.413191	1.740113
C	0.004738	-2.017009	0.013913
H	-1.010162	-2.017209	0.383213
H	0.284838	-2.720809	0.783713
H	-0.319162	-2.535909	-0.876087
H	0.004838	2.841091	-1.147687
$end

$rem
JOBTYPE		SP
EXCHANGE	HF
CORRELATION	pRIMP2
BASIS		cc-pvtz
METHOD		rimp2
AUX_BASIS	rimp2-cc-pvtz
SOLVENT_METHOD	PCM
PURECART	11111
SYMMETRY	false
MEM_TOTAL	110000
SCF_CONVERGENCE = 6
THRESH=10
$end

$solvent
dielectric 4.90
$end
--------------------------------------------------------------

             Standard Nuclear Orientation (Angstroms)
    I     Atom           X                Y                Z
 ----------------------------------------------------------------
    1      C       0.0047380000    -0.5763090000     0.0139130000
    2      C       0.0047380000     0.2872910000     1.1133130000
    3      C       0.0048380000     1.6711910000     0.7906130000
    4      H       0.0047380000    -0.0815090000     2.1500130000
    5      C       0.0048380000     1.8918910000    -0.5985870000
    6      S       0.0047380000     0.3660910000    -1.4728870000
    7      C       0.0048380000     2.7589910000     1.8285130000
    8      H       0.0048380000     2.3332910000     2.8506130000
    9      H      -0.8875620000     3.4132910000     1.7401130000
   10      H       0.8972380000     3.4131910000     1.7401130000
   11      C       0.0047380000    -2.0170090000     0.0139130000
   12      H      -1.0101620000    -2.0172090000     0.3832130000
   13      H       0.2848380000    -2.7208090000     0.7837130000
   14      H      -0.3191620000    -2.5359090000    -0.8760870000
   15      H       0.0048380000     2.8410910000    -1.1476870000
 ----------------------------------------------------------------

   10    -629.4240255663      6.75e-07  Convergence criterion met
 Total energy in the final basis set =     -629.4240255663
        RIMP2         total energy =      -630.5997917460 a.u.

                    Orbital Energies (a.u.)
 --------------------------------------------------------------

 Alpha MOs
 -- Occupied --
-91.9790 -11.2850 -11.2488 -11.2470 -11.2264 -11.2230 -11.2213  -8.9787
 -6.6597  -6.6591  -6.6585  -1.1601  -1.0558  -0.9978  -0.9414  -0.8830
 -0.7430  -0.7193  -0.6498  -0.5873  -0.5732  -0.5677  -0.5571  -0.5450
 -0.5076  -0.4931  -0.4656  -0.4556  -0.3378  -0.2895

          Ground-State Mulliken Net Atomic Charges

     Atom                 Charge (a.u.)
  ----------------------------------------
      1 C                     0.070520
      2 C                    -0.308062
      3 C                     0.049225
      4 H                     0.174548
      5 C                    -0.279604
      6 S                     0.003463
      7 C                    -0.275083
      8 H                     0.101303
      9 H                     0.107259
     10 H                     0.107244
     11 C                    -0.384773
     12 H                     0.143443
     13 H                     0.160914
     14 H                     0.137153
     15 H                     0.192451
  ----------------------------------------
  Sum of atomic charges =     0.000000

                    Cartesian Multipole Moments
 -----------------------------------------------------------------
    Charge (ESU x 10^10)
                -0.0000
    Dipole Moment (Debye)
         X      -0.7005      Y      -0.6991      Z       1.6284
       Tot       1.9055
    Quadrupole Moments (Debye-Ang)
        XX     -54.3211     XY       1.4599     YY     -41.8260
        XZ       0.1491     YZ      -0.2989     ZZ     -48.5785

 Total job time:  156.57s(wall), 155.37s(cpu)
        *  Thank you very much for using Q-Chem.  Have a nice day.  *
