 Q-Chem 5.4, Q-Chem, Inc., Pleasanton, CA (2021)
 Q-Chem 5.4.0 for Intel X86 EM64T Linux

User input:
--------------------------------------------------------------
$molecule
0 1
C	-0.232288	-0.535395	0.010154
C	0.063112	0.276105	1.109554
C	0.536412	1.576505	0.786854
H	-0.062988	-0.070395	2.146254
C	0.611912	1.783905	-0.602346
S	0.090012	0.350205	-1.476646
C	0.908512	2.598705	1.824754
H	0.762912	2.198705	2.846854
H	0.293712	3.518705	1.736354
H	1.970912	2.908305	1.736354
C	-0.232288	-1.976095	0.010154
H	-0.044888	-1.976295	1.073754
H	0.574512	-2.679895	-0.132046
H	-1.164988	-2.494995	0.174654
H	0.936612	2.675905	-1.151446
$end

$rem
JOBTYPE		SP
EXCHANGE	HF
CORRELATION	pRIMP2
BASIS		cc-pvtz
METHOD		rimp2
AUX_BASIS	rimp2-cc-pvtz
SOLVENT_METHOD	PCM
PURECART	11111
SYMMETRY	false
MEM_TOTAL	110000
SCF_CONVERGENCE = 6
THRESH=10
$end

$solvent
dielectric 4.90
$end
--------------------------------------------------------------

             Standard Nuclear Orientation (Angstroms)
    I     Atom           X                Y                Z
 ----------------------------------------------------------------
    1      C      -0.2322880000    -0.5353950000     0.0101540000
    2      C       0.0631120000     0.2761050000     1.1095540000
    3      C       0.5364120000     1.5765050000     0.7868540000
    4      H      -0.0629880000    -0.0703950000     2.1462540000
    5      C       0.6119120000     1.7839050000    -0.6023460000
    6      S       0.0900120000     0.3502050000    -1.4766460000
    7      C       0.9085120000     2.5987050000     1.8247540000
    8      H       0.7629120000     2.1987050000     2.8468540000
    9      H       0.2937120000     3.5187050000     1.7363540000
   10      H       1.9709120000     2.9083050000     1.7363540000
   11      C      -0.2322880000    -1.9760950000     0.0101540000
   12      H      -0.0448880000    -1.9762950000     1.0737540000
   13      H       0.5745120000    -2.6798950000    -0.1320460000
   14      H      -1.1649880000    -2.4949950000     0.1746540000
   15      H       0.9366120000     2.6759050000    -1.1514460000
 ----------------------------------------------------------------

   10    -629.4151197500      4.94e-07  Convergence criterion met
 Total energy in the final basis set =     -629.4151197500
        RIMP2         total energy =      -630.5950770655 a.u.

                    Orbital Energies (a.u.)
 --------------------------------------------------------------

 Alpha MOs
 -- Occupied --
-91.9750 -11.2743 -11.2594 -11.2472 -11.2357 -11.2276 -11.2145  -8.9751
 -6.6561  -6.6555  -6.6550  -1.1622  -1.0538  -0.9997  -0.9388  -0.8843
 -0.7426  -0.7252  -0.6479  -0.5902  -0.5785  -0.5688  -0.5576  -0.5419
 -0.5123  -0.4796  -0.4682  -0.4373  -0.3370  -0.3036

          Ground-State Mulliken Net Atomic Charges

     Atom                 Charge (a.u.)
  ----------------------------------------
      1 C                     0.040374
      2 C                    -0.265880
      3 C                     0.034697
      4 H                     0.176352
      5 C                    -0.248003
      6 S                    -0.004647
      7 C                    -0.271981
      8 H                     0.101197
      9 H                     0.107065
     10 H                     0.106983
     11 C                    -0.365909
     12 H                     0.122962
     13 H                     0.150062
     14 H                     0.123745
     15 H                     0.192982
  ----------------------------------------
  Sum of atomic charges =     0.000000

                    Cartesian Multipole Moments
 -----------------------------------------------------------------
    Charge (ESU x 10^10)
                -0.0000
    Dipole Moment (Debye)
         X       0.6548      Y       0.0006      Z       2.1598
       Tot       2.2569
    Quadrupole Moments (Debye-Ang)
        XX     -52.8182     XY       2.4383     YY     -43.4251
        XZ      -0.1824     YZ      -1.0630     ZZ     -48.8511

 Total job time:  158.83s(wall), 156.74s(cpu)
        *  Thank you very much for using Q-Chem.  Have a nice day.  *
