 Q-Chem 5.4, Q-Chem, Inc., Pleasanton, CA (2021)
 Q-Chem 5.4.0 for Intel X86 EM64T Linux

User input:
--------------------------------------------------------------
$molecule
0 1
C	-0.061824	-0.573727	0.010945
C	0.013476	0.286573	1.110345
C	0.134076	1.665273	0.787645
H	-0.018624	-0.080827	2.147045
C	0.153376	1.885073	-0.601555
S	0.020376	0.365073	-1.475855
C	0.228976	2.748873	1.825545
H	0.191876	2.324773	2.847645
H	-0.603024	3.478373	1.737145
H	1.174976	3.322873	1.737145
C	-0.061824	-2.014427	0.010945
H	0.632276	-2.014627	0.838345
H	0.565776	-2.718227	-0.515555
H	-0.787324	-2.533327	0.619745
H	0.236076	2.830673	-1.150655
$end

$rem
JOBTYPE		SP
EXCHANGE	HF
CORRELATION	pRIMP2
BASIS		cc-pvtz
METHOD		rimp2
AUX_BASIS	rimp2-cc-pvtz
SOLVENT_METHOD	PCM
PURECART	11111
SYMMETRY	false
MEM_TOTAL	110000
SCF_CONVERGENCE = 6
THRESH=10
$end

$solvent
dielectric 4.90
$end
--------------------------------------------------------------

             Standard Nuclear Orientation (Angstroms)
    I     Atom           X                Y                Z
 ----------------------------------------------------------------
    1      C      -0.0618240000    -0.5737270000     0.0109450000
    2      C       0.0134760000     0.2865730000     1.1103450000
    3      C       0.1340760000     1.6652730000     0.7876450000
    4      H      -0.0186240000    -0.0808270000     2.1470450000
    5      C       0.1533760000     1.8850730000    -0.6015550000
    6      S       0.0203760000     0.3650730000    -1.4758550000
    7      C       0.2289760000     2.7488730000     1.8255450000
    8      H       0.1918760000     2.3247730000     2.8476450000
    9      H      -0.6030240000     3.4783730000     1.7371450000
   10      H       1.1749760000     3.3228730000     1.7371450000
   11      C      -0.0618240000    -2.0144270000     0.0109450000
   12      H       0.6322760000    -2.0146270000     0.8383450000
   13      H       0.5657760000    -2.7182270000    -0.5155550000
   14      H      -0.7873240000    -2.5333270000     0.6197450000
   15      H       0.2360760000     2.8306730000    -1.1506550000
 ----------------------------------------------------------------

   10    -629.4230195490      5.68e-07  Convergence criterion met
 Total energy in the final basis set =     -629.4230195490
        RIMP2         total energy =      -630.6004898046 a.u.

                    Orbital Energies (a.u.)
 --------------------------------------------------------------

 Alpha MOs
 -- Occupied --
-91.9768 -11.2818 -11.2523 -11.2473 -11.2288 -11.2270 -11.2182  -8.9766
 -6.6576  -6.6570  -6.6565  -1.1606  -1.0548  -0.9991  -0.9397  -0.8839
 -0.7422  -0.7216  -0.6483  -0.5915  -0.5751  -0.5693  -0.5582  -0.5430
 -0.5096  -0.4863  -0.4671  -0.4466  -0.3370  -0.2961

          Ground-State Mulliken Net Atomic Charges

     Atom                 Charge (a.u.)
  ----------------------------------------
      1 C                     0.067034
      2 C                    -0.276003
      3 C                     0.034245
      4 H                     0.176562
      5 C                    -0.265491
      6 S                    -0.005032
      7 C                    -0.274413
      8 H                     0.101102
      9 H                     0.107316
     10 H                     0.107172
     11 C                    -0.388897
     12 H                     0.134439
     13 H                     0.157068
     14 H                     0.132736
     15 H                     0.192161
  ----------------------------------------
  Sum of atomic charges =     0.000000

                    Cartesian Multipole Moments
 -----------------------------------------------------------------
    Charge (ESU x 10^10)
                -0.0000
    Dipole Moment (Debye)
         X       0.5488      Y      -0.4113      Z       1.9850
       Tot       2.1002
    Quadrupole Moments (Debye-Ang)
        XX     -53.9584     XY      -0.3515     YY     -42.1457
        XZ      -0.2885     YZ      -0.6875     ZZ     -48.7712

 Total job time:  162.63s(wall), 159.78s(cpu)
        *  Thank you very much for using Q-Chem.  Have a nice day.  *
