 Q-Chem 5.4, Q-Chem, Inc., Pleasanton, CA (2021)
 Q-Chem 5.4.0 for Intel X86 EM64T Linux

User input:
--------------------------------------------------------------
$molecule
0 1
C	-0.342524	-0.485419	0.011472
C	0.089276	0.262481	1.110872
C	0.781276	1.460981	0.788172
H	-0.095124	-0.056919	2.147572
C	0.891576	1.652081	-0.601028
S	0.128676	0.330681	-1.475328
C	1.325176	2.402981	1.826072
H	1.112376	2.034381	2.848172
H	0.879476	3.415781	1.737672
H	2.425176	2.523381	1.737672
C	-0.342524	-1.926119	0.011472
H	0.484776	-1.926319	0.705772
H	0.184076	-2.629919	-0.616028
H	-0.951324	-2.445019	0.737072
H	1.366276	2.474081	-1.150128
$end

$rem
JOBTYPE		SP
EXCHANGE	HF
CORRELATION	pRIMP2
BASIS		cc-pvtz
METHOD		rimp2
AUX_BASIS	rimp2-cc-pvtz
SOLVENT_METHOD	PCM
PURECART	11111
SYMMETRY	false
MEM_TOTAL	110000
SCF_CONVERGENCE = 6
THRESH=10
$end

$solvent
dielectric 4.90
$end
--------------------------------------------------------------

             Standard Nuclear Orientation (Angstroms)
    I     Atom           X                Y                Z
 ----------------------------------------------------------------
    1      C      -0.3425240000    -0.4854190000     0.0114720000
    2      C       0.0892760000     0.2624810000     1.1108720000
    3      C       0.7812760000     1.4609810000     0.7881720000
    4      H      -0.0951240000    -0.0569190000     2.1475720000
    5      C       0.8915760000     1.6520810000    -0.6010280000
    6      S       0.1286760000     0.3306810000    -1.4753280000
    7      C       1.3251760000     2.4029810000     1.8260720000
    8      H       1.1123760000     2.0343810000     2.8481720000
    9      H       0.8794760000     3.4157810000     1.7376720000
   10      H       2.4251760000     2.5233810000     1.7376720000
   11      C      -0.3425240000    -1.9261190000     0.0114720000
   12      H       0.4847760000    -1.9263190000     0.7057720000
   13      H       0.1840760000    -2.6299190000    -0.6160280000
   14      H      -0.9513240000    -2.4450190000     0.7370720000
   15      H       1.3662760000     2.4740810000    -1.1501280000
 ----------------------------------------------------------------

   10    -629.4020503552      5.50e-07  Convergence criterion met
 Total energy in the final basis set =     -629.4020503552
        RIMP2         total energy =      -630.5838759725 a.u.

                    Orbital Energies (a.u.)
 --------------------------------------------------------------

 Alpha MOs
 -- Occupied --
-91.9783 -11.2774 -11.2553 -11.2480 -11.2291 -11.2273 -11.2156  -8.9781
 -6.6590  -6.6584  -6.6579  -1.1638  -1.0552  -0.9987  -0.9377  -0.8829
 -0.7432  -0.7228  -0.6463  -0.5895  -0.5751  -0.5732  -0.5556  -0.5436
 -0.5113  -0.4789  -0.4656  -0.4517  -0.3358  -0.2914

          Ground-State Mulliken Net Atomic Charges

     Atom                 Charge (a.u.)
  ----------------------------------------
      1 C                     0.024427
      2 C                    -0.258410
      3 C                     0.033390
      4 H                     0.175811
      5 C                    -0.262238
      6 S                     0.004986
      7 C                    -0.270519
      8 H                     0.101412
      9 H                     0.107396
     10 H                     0.106077
     11 C                    -0.391505
     12 H                     0.147527
     13 H                     0.160850
     14 H                     0.128274
     15 H                     0.192524
  ----------------------------------------
  Sum of atomic charges =     0.000000

                    Cartesian Multipole Moments
 -----------------------------------------------------------------
    Charge (ESU x 10^10)
                -0.0000
    Dipole Moment (Debye)
         X       1.2438      Y      -0.3668      Z       1.8969
       Tot       2.2978
    Quadrupole Moments (Debye-Ang)
        XX     -52.4702     XY       2.6371     YY     -44.7196
        XZ      -0.2352     YZ      -0.5687     ZZ     -48.4608

 Total job time:  161.94s(wall), 159.90s(cpu)
        *  Thank you very much for using Q-Chem.  Have a nice day.  *
