 Q-Chem 5.4, Q-Chem, Inc., Pleasanton, CA (2021)
 Q-Chem 5.4.0 for Intel X86 EM64T Linux

User input:
--------------------------------------------------------------
$molecule
0 1
C	-0.286972	-0.512744	0.010154
C	0.078028	0.269956	1.109554
C	0.662928	1.524156	0.786854
H	-0.077872	-0.064344	2.146254
C	0.756228	1.724156	-0.602346
S	0.111328	0.341356	-1.476646
C	1.122628	2.509956	1.824754
H	0.942728	2.124256	2.846854
H	0.590328	3.480156	1.736354
H	2.207928	2.725856	1.736354
C	-0.286972	-1.953444	0.010154
H	-0.099572	-1.953644	1.073754
H	0.519828	-2.657244	-0.132046
H	-1.219672	-2.472344	0.174654
H	1.157328	2.584456	-1.151446
$end

$rem
JOBTYPE		SP
EXCHANGE	HF
CORRELATION	pRIMP2
BASIS		cc-pvtz
METHOD		rimp2
AUX_BASIS	rimp2-cc-pvtz
SOLVENT_METHOD	PCM
PURECART	11111
SYMMETRY	false
MEM_TOTAL	110000
SCF_CONVERGENCE = 6
THRESH=10
$end

$solvent
dielectric 4.90
$end
--------------------------------------------------------------

             Standard Nuclear Orientation (Angstroms)
    I     Atom           X                Y                Z
 ----------------------------------------------------------------
    1      C      -0.2869720000    -0.5127440000     0.0101540000
    2      C       0.0780280000     0.2699560000     1.1095540000
    3      C       0.6629280000     1.5241560000     0.7868540000
    4      H      -0.0778720000    -0.0643440000     2.1462540000
    5      C       0.7562280000     1.7241560000    -0.6023460000
    6      S       0.1113280000     0.3413560000    -1.4766460000
    7      C       1.1226280000     2.5099560000     1.8247540000
    8      H       0.9427280000     2.1242560000     2.8468540000
    9      H       0.5903280000     3.4801560000     1.7363540000
   10      H       2.2079280000     2.7258560000     1.7363540000
   11      C      -0.2869720000    -1.9534440000     0.0101540000
   12      H      -0.0995720000    -1.9536440000     1.0737540000
   13      H       0.5198280000    -2.6572440000    -0.1320460000
   14      H      -1.2196720000    -2.4723440000     0.1746540000
   15      H       1.1573280000     2.5844560000    -1.1514460000
 ----------------------------------------------------------------

   10    -629.4099351671      4.99e-07  Convergence criterion met
 Total energy in the final basis set =     -629.4099351671
        RIMP2         total energy =      -630.5910166207 a.u.

                    Orbital Energies (a.u.)
 --------------------------------------------------------------

 Alpha MOs
 -- Occupied --
-91.9749 -11.2722 -11.2609 -11.2473 -11.2367 -11.2277 -11.2135  -8.9751
 -6.6560  -6.6554  -6.6549  -1.1629  -1.0538  -0.9997  -0.9383  -0.8842
 -0.7428  -0.7258  -0.6474  -0.5896  -0.5789  -0.5694  -0.5570  -0.5419
 -0.5131  -0.4771  -0.4682  -0.4368  -0.3366  -0.3036

          Ground-State Mulliken Net Atomic Charges

     Atom                 Charge (a.u.)
  ----------------------------------------
      1 C                     0.027701
      2 C                    -0.259472
      3 C                     0.034472
      4 H                     0.176174
      5 C                    -0.244789
      6 S                    -0.003378
      7 C                    -0.271240
      8 H                     0.101273
      9 H                     0.106988
     10 H                     0.106761
     11 C                    -0.363771
     12 H                     0.122664
     13 H                     0.152115
     14 H                     0.121407
     15 H                     0.193094
  ----------------------------------------
  Sum of atomic charges =     0.000000

                    Cartesian Multipole Moments
 -----------------------------------------------------------------
    Charge (ESU x 10^10)
                -0.0000
    Dipole Moment (Debye)
         X       0.8227      Y       0.0481      Z       2.1713
       Tot       2.3225
    Quadrupole Moments (Debye-Ang)
        XX     -52.3412     XY       2.9779     YY     -44.0890
        XZ      -0.2138     YZ      -1.0653     ZZ     -48.7947

 Total job time:  158.56s(wall), 156.30s(cpu)
        *  Thank you very much for using Q-Chem.  Have a nice day.  *
