 Q-Chem 5.4, Q-Chem, Inc., Pleasanton, CA (2021)
 Q-Chem 5.4.0 for Intel X86 EM64T Linux

User input:
--------------------------------------------------------------
$molecule
0 1
C	-0.236500	-0.535397	0.013103
C	0.058900	0.276103	1.112503
C	0.532200	1.576503	0.789803
H	-0.067200	-0.070397	2.149203
C	0.607700	1.783903	-0.599397
S	0.085800	0.350203	-1.473697
C	0.904300	2.598703	1.827703
H	0.758700	2.198703	2.849803
H	0.289500	3.518703	1.739303
H	1.966700	2.908303	1.739303
C	-0.236500	-1.976097	0.013103
H	0.698700	-1.975797	0.553203
H	-0.646100	-2.679897	0.722503
H	0.237100	-2.494997	-0.807097
H	0.932400	2.675903	-1.148497
$end

$rem
JOBTYPE		SP
EXCHANGE	HF
CORRELATION	pRIMP2
BASIS		cc-pvtz
METHOD		rimp2
AUX_BASIS	rimp2-cc-pvtz
SOLVENT_METHOD	PCM
PURECART	11111
SYMMETRY	false
MEM_TOTAL	110000
SCF_CONVERGENCE = 6
THRESH=10
$end

$solvent
dielectric 4.90
$end
--------------------------------------------------------------

   10    -629.4156374388      6.16e-07  Convergence criterion met
 Total energy in the final basis set =     -629.4156374388
        RIMP2         total energy =      -630.5936928987 a.u.
 Total job time:  164.35s(wall), 158.79s(cpu)
        *  Thank you very much for using Q-Chem.  Have a nice day.  *
 Q-Chem 5.4, Q-Chem, Inc., Pleasanton, CA (2021)
 Q-Chem 5.4.0 for Intel X86 EM64T Linux

User input:
--------------------------------------------------------------
$molecule
0 1
C	-0.236500	-0.535397	0.013103
C	0.058900	0.276103	1.112503
C	0.532200	1.576503	0.789803
H	-0.067200	-0.070397	2.149203
C	0.607700	1.783903	-0.599397
S	0.085800	0.350203	-1.473697
C	0.904300	2.598703	1.827703
H	0.758700	2.198703	2.849803
H	0.289500	3.518703	1.739303
H	1.966700	2.908303	1.739303
C	-0.236500	-1.976097	0.013103
H	0.698700	-1.975797	0.553203
H	-0.646100	-2.679897	0.722503
H	0.237100	-2.494997	-0.807097
H	0.932400	2.675903	-1.148497
$end

$rem
JOBTYPE		SP
EXCHANGE	HF
CORRELATION	pRIMP2
BASIS		cc-pvtz
METHOD		rimp2
AUX_BASIS	rimp2-cc-pvtz
SOLVENT_METHOD	PCM
PURECART	11111
SYMMETRY	false
MEM_TOTAL	110000
SCF_CONVERGENCE = 6
THRESH=10
$end

$solvent
dielectric 4.90
$end
--------------------------------------------------------------

             Standard Nuclear Orientation (Angstroms)
    I     Atom           X                Y                Z
 ----------------------------------------------------------------
    1      C      -0.2365000000    -0.5353970000     0.0131030000
    2      C       0.0589000000     0.2761030000     1.1125030000
    3      C       0.5322000000     1.5765030000     0.7898030000
    4      H      -0.0672000000    -0.0703970000     2.1492030000
    5      C       0.6077000000     1.7839030000    -0.5993970000
    6      S       0.0858000000     0.3502030000    -1.4736970000
    7      C       0.9043000000     2.5987030000     1.8277030000
    8      H       0.7587000000     2.1987030000     2.8498030000
    9      H       0.2895000000     3.5187030000     1.7393030000
   10      H       1.9667000000     2.9083030000     1.7393030000
   11      C      -0.2365000000    -1.9760970000     0.0131030000
   12      H       0.6987000000    -1.9757970000     0.5532030000
   13      H      -0.6461000000    -2.6798970000     0.7225030000
   14      H       0.2371000000    -2.4949970000    -0.8070970000
   15      H       0.9324000000     2.6759030000    -1.1484970000
 ----------------------------------------------------------------

   10    -629.4156374388      6.16e-07  Convergence criterion met
 Total energy in the final basis set =     -629.4156374388
        RIMP2         total energy =      -630.5936928987 a.u.

                    Orbital Energies (a.u.)
 --------------------------------------------------------------

 Alpha MOs
 -- Occupied --
-91.9793 -11.2825 -11.2511 -11.2475 -11.2268 -11.2246 -11.2193  -8.9790
 -6.6600  -6.6594  -6.6588  -1.1620  -1.0557  -0.9980  -0.9398  -0.8827
 -0.7431  -0.7208  -0.6488  -0.5886  -0.5741  -0.5680  -0.5572  -0.5444
 -0.5080  -0.4877  -0.4668  -0.4549  -0.3370  -0.2903

          Ground-State Mulliken Net Atomic Charges

     Atom                 Charge (a.u.)
  ----------------------------------------
      1 C                     0.047006
      2 C                    -0.281410
      3 C                     0.042527
      4 H                     0.174204
      5 C                    -0.274214
      6 S                     0.004845
      7 C                    -0.272246
      8 H                     0.101378
      9 H                     0.107455
     10 H                     0.106584
     11 C                    -0.388681
     12 H                     0.148695
     13 H                     0.154395
     14 H                     0.136737
     15 H                     0.192726
  ----------------------------------------
  Sum of atomic charges =     0.000000

                    Cartesian Multipole Moments
 -----------------------------------------------------------------
    Charge (ESU x 10^10)
                -0.0000
    Dipole Moment (Debye)
         X       1.0391      Y      -0.5676      Z       1.7507
       Tot       2.1135
    Quadrupole Moments (Debye-Ang)
        XX     -53.5727     XY       1.5847     YY     -43.2019
        XZ      -0.1561     YZ      -0.5737     ZZ     -48.5140

 Total job time:  156.92s(wall), 155.89s(cpu)
        *  Thank you very much for using Q-Chem.  Have a nice day.  *
