 Q-Chem 5.4, Q-Chem, Inc., Pleasanton, CA (2021)
 Q-Chem 5.4.0 for Intel X86 EM64T Linux

User input:
--------------------------------------------------------------
$molecule
0 1
C	-0.004079	-0.576278	0.014458
C	-0.004079	0.287322	1.113858
C	-0.003979	1.671222	0.791158
H	-0.004079	-0.081478	2.150558
C	-0.003979	1.891922	-0.598042
S	-0.004079	0.366122	-1.472342
C	-0.003979	2.759022	1.829058
H	-0.003979	2.333322	2.851158
H	-0.896379	3.413322	1.740658
H	0.888421	3.413222	1.740658
C	0.121521	-2.011478	0.014458
H	-0.954479	-2.105278	0.014358
H	0.182921	-2.712578	-0.804742
H	0.166721	-2.528478	0.961558
H	-0.003979	2.841122	-1.147142
$end

$rem
JOBTYPE		SP
EXCHANGE	HF
CORRELATION	pRIMP2
BASIS		cc-pvtz
METHOD		rimp2
AUX_BASIS	rimp2-cc-pvtz
SOLVENT_METHOD	PCM
PURECART	11111
SYMMETRY	false
MEM_TOTAL	110000
SCF_CONVERGENCE = 6
THRESH=10
$end

$solvent
dielectric 4.90
$end
--------------------------------------------------------------

             Standard Nuclear Orientation (Angstroms)
    I     Atom           X                Y                Z
 ----------------------------------------------------------------
    1      C      -0.0040790000    -0.5762780000     0.0144580000
    2      C      -0.0040790000     0.2873220000     1.1138580000
    3      C      -0.0039790000     1.6712220000     0.7911580000
    4      H      -0.0040790000    -0.0814780000     2.1505580000
    5      C      -0.0039790000     1.8919220000    -0.5980420000
    6      S      -0.0040790000     0.3661220000    -1.4723420000
    7      C      -0.0039790000     2.7590220000     1.8290580000
    8      H      -0.0039790000     2.3333220000     2.8511580000
    9      H      -0.8963790000     3.4133220000     1.7406580000
   10      H       0.8884210000     3.4132220000     1.7406580000
   11      C       0.1215210000    -2.0114780000     0.0144580000
   12      H      -0.9544790000    -2.1052780000     0.0143580000
   13      H       0.1829210000    -2.7125780000    -0.8047420000
   14      H       0.1667210000    -2.5284780000     0.9615580000
   15      H      -0.0039790000     2.8411220000    -1.1471420000
 ----------------------------------------------------------------

   10    -629.4236475069      6.94e-07  Convergence criterion met
 Total energy in the final basis set =     -629.4236475069
        RIMP2         total energy =      -630.5991318538 a.u.

                    Orbital Energies (a.u.)
 --------------------------------------------------------------

 Alpha MOs
 -- Occupied --
-91.9776 -11.2860 -11.2485 -11.2469 -11.2264 -11.2234 -11.2221  -8.9775
 -6.6585  -6.6579  -6.6573  -1.1601  -1.0562  -0.9975  -0.9420  -0.8828
 -0.7437  -0.7186  -0.6476  -0.5893  -0.5744  -0.5709  -0.5526  -0.5457
 -0.5082  -0.4937  -0.4643  -0.4563  -0.3383  -0.2881

          Ground-State Mulliken Net Atomic Charges

     Atom                 Charge (a.u.)
  ----------------------------------------
      1 C                     0.065900
      2 C                    -0.307383
      3 C                     0.048362
      4 H                     0.176834
      5 C                    -0.279863
      6 S                    -0.001998
      7 C                    -0.274488
      8 H                     0.101280
      9 H                     0.107361
     10 H                     0.107325
     11 C                    -0.383932
     12 H                     0.142565
     13 H                     0.163532
     14 H                     0.142030
     15 H                     0.192473
  ----------------------------------------
  Sum of atomic charges =     0.000000

                    Cartesian Multipole Moments
 -----------------------------------------------------------------
    Charge (ESU x 10^10)
                -0.0000
    Dipole Moment (Debye)
         X      -0.5863      Y      -0.8266      Z       1.4081
       Tot       1.7349
    Quadrupole Moments (Debye-Ang)
        XX     -54.5851     XY       1.2237     YY     -41.4335
        XZ      -0.0368     YZ       0.5025     ZZ     -48.5916

 Total job time:  163.93s(wall), 159.80s(cpu)
        *  Thank you very much for using Q-Chem.  Have a nice day.  *
