 Q-Chem 5.4, Q-Chem, Inc., Pleasanton, CA (2021)
 Q-Chem 5.4.0 for Intel X86 EM64T Linux

User input:
--------------------------------------------------------------
$molecule
0 1
C	-0.230892	-0.535397	0.010277
C	0.064508	0.276103	1.109677
C	0.537808	1.576503	0.786977
H	-0.061592	-0.070397	2.146377
C	0.613308	1.783903	-0.602223
S	0.091408	0.350203	-1.476523
C	0.909908	2.598703	1.824877
H	0.764308	2.198703	2.846977
H	0.295108	3.518703	1.736477
H	1.972308	2.908303	1.736477
C	-0.230892	-1.976097	0.010277
H	-0.600392	-1.975797	1.025077
H	-1.000692	-2.679897	-0.269923
H	0.659108	-2.494997	0.334177
H	0.938008	2.675903	-1.151323
$end

$rem
JOBTYPE		SP
EXCHANGE	HF
CORRELATION	pRIMP2
BASIS		cc-pvtz
METHOD		rimp2
AUX_BASIS	rimp2-cc-pvtz
SOLVENT_METHOD	PCM
PURECART	11111
SYMMETRY	false
MEM_TOTAL	110000
SCF_CONVERGENCE = 6
THRESH=10
$end

$solvent
dielectric 4.90
$end
--------------------------------------------------------------

   10    -629.4178572017      5.04e-07  Convergence criterion met
 Total energy in the final basis set =     -629.4178572017
        RIMP2         total energy =      -630.5974355338 a.u.
 Total job time:  156.93s(wall), 155.84s(cpu)
        *  Thank you very much for using Q-Chem.  Have a nice day.  *
 Q-Chem 5.4, Q-Chem, Inc., Pleasanton, CA (2021)
 Q-Chem 5.4.0 for Intel X86 EM64T Linux

User input:
--------------------------------------------------------------
$molecule
0 1
C	-0.230892	-0.535397	0.010277
C	0.064508	0.276103	1.109677
C	0.537808	1.576503	0.786977
H	-0.061592	-0.070397	2.146377
C	0.613308	1.783903	-0.602223
S	0.091408	0.350203	-1.476523
C	0.909908	2.598703	1.824877
H	0.764308	2.198703	2.846977
H	0.295108	3.518703	1.736477
H	1.972308	2.908303	1.736477
C	-0.230892	-1.976097	0.010277
H	-0.600392	-1.975797	1.025077
H	-1.000692	-2.679897	-0.269923
H	0.659108	-2.494997	0.334177
H	0.938008	2.675903	-1.151323
$end

$rem
JOBTYPE		SP
EXCHANGE	HF
CORRELATION	pRIMP2
BASIS		cc-pvtz
METHOD		rimp2
AUX_BASIS	rimp2-cc-pvtz
SOLVENT_METHOD	PCM
PURECART	11111
SYMMETRY	false
MEM_TOTAL	110000
SCF_CONVERGENCE = 6
THRESH=10
$end

$solvent
dielectric 4.90
$end
--------------------------------------------------------------

             Standard Nuclear Orientation (Angstroms)
    I     Atom           X                Y                Z
 ----------------------------------------------------------------
    1      C      -0.2308920000    -0.5353970000     0.0102770000
    2      C       0.0645080000     0.2761030000     1.1096770000
    3      C       0.5378080000     1.5765030000     0.7869770000
    4      H      -0.0615920000    -0.0703970000     2.1463770000
    5      C       0.6133080000     1.7839030000    -0.6022230000
    6      S       0.0914080000     0.3502030000    -1.4765230000
    7      C       0.9099080000     2.5987030000     1.8248770000
    8      H       0.7643080000     2.1987030000     2.8469770000
    9      H       0.2951080000     3.5187030000     1.7364770000
   10      H       1.9723080000     2.9083030000     1.7364770000
   11      C      -0.2308920000    -1.9760970000     0.0102770000
   12      H      -0.6003920000    -1.9757970000     1.0250770000
   13      H      -1.0006920000    -2.6798970000    -0.2699230000
   14      H       0.6591080000    -2.4949970000     0.3341770000
   15      H       0.9380080000     2.6759030000    -1.1513230000
 ----------------------------------------------------------------

   10    -629.4178572017      5.04e-07  Convergence criterion met
 Total energy in the final basis set =     -629.4178572017
        RIMP2         total energy =      -630.5974355338 a.u.

                    Orbital Energies (a.u.)
 --------------------------------------------------------------

 Alpha MOs
 -- Occupied --
-91.9741 -11.2753 -11.2588 -11.2474 -11.2354 -11.2276 -11.2159  -8.9744
 -6.6553  -6.6547  -6.6542  -1.1619  -1.0541  -0.9994  -0.9391  -0.8844
 -0.7426  -0.7243  -0.6474  -0.5919  -0.5781  -0.5660  -0.5593  -0.5422
 -0.5113  -0.4854  -0.4662  -0.4366  -0.3379  -0.3023

          Ground-State Mulliken Net Atomic Charges

     Atom                 Charge (a.u.)
  ----------------------------------------
      1 C                     0.042404
      2 C                    -0.273871
      3 C                     0.040390
      4 H                     0.177547
      5 C                    -0.251402
      6 S                    -0.005261
      7 C                    -0.271694
      8 H                     0.101224
      9 H                     0.107024
     10 H                     0.107152
     11 C                    -0.367205
     12 H                     0.118589
     13 H                     0.151564
     14 H                     0.130548
     15 H                     0.192990
  ----------------------------------------
  Sum of atomic charges =     0.000000

                    Cartesian Multipole Moments
 -----------------------------------------------------------------
    Charge (ESU x 10^10)
                -0.0000
    Dipole Moment (Debye)
         X       0.3312      Y      -0.0743      Z       2.1436
       Tot       2.1703
    Quadrupole Moments (Debye-Ang)
        XX     -52.6954     XY       3.4860     YY     -43.3012
        XZ       0.1501     YZ      -0.9780     ZZ     -48.8777

 Total job time:  158.57s(wall), 156.82s(cpu)
        *  Thank you very much for using Q-Chem.  Have a nice day.  *
