 Q-Chem 5.4, Q-Chem, Inc., Pleasanton, CA (2021)
 Q-Chem 5.4.0 for Intel X86 EM64T Linux

User input:
--------------------------------------------------------------
$molecule
0 1
C	-0.055059	-0.573727	0.012353
C	0.020241	0.286573	1.111753
C	0.140841	1.665273	0.789053
H	-0.011859	-0.080827	2.148453
C	0.160141	1.885073	-0.600147
S	0.027141	0.365073	-1.474447
C	0.235741	2.748873	1.826953
H	0.198641	2.324773	2.849053
H	-0.596259	3.478373	1.738553
H	1.181741	3.322873	1.738553
C	-0.055059	-2.014427	0.012353
H	-0.882459	-2.014627	0.706453
H	0.471441	-2.718227	0.639953
H	-0.663859	-2.533327	-0.713147
H	0.242841	2.830673	-1.149247
$end

$rem
JOBTYPE		SP
EXCHANGE	HF
CORRELATION	pRIMP2
BASIS		cc-pvtz
METHOD		rimp2
AUX_BASIS	rimp2-cc-pvtz
SOLVENT_METHOD	PCM
PURECART	11111
SYMMETRY	false
MEM_TOTAL	110000
SCF_CONVERGENCE = 6
THRESH=10
$end

$solvent
dielectric 4.90
$end
--------------------------------------------------------------

             Standard Nuclear Orientation (Angstroms)
    I     Atom           X                Y                Z
 ----------------------------------------------------------------
    1      C      -0.0550590000    -0.5737270000     0.0123530000
    2      C       0.0202410000     0.2865730000     1.1117530000
    3      C       0.1408410000     1.6652730000     0.7890530000
    4      H      -0.0118590000    -0.0808270000     2.1484530000
    5      C       0.1601410000     1.8850730000    -0.6001470000
    6      S       0.0271410000     0.3650730000    -1.4744470000
    7      C       0.2357410000     2.7488730000     1.8269530000
    8      H       0.1986410000     2.3247730000     2.8490530000
    9      H      -0.5962590000     3.4783730000     1.7385530000
   10      H       1.1817410000     3.3228730000     1.7385530000
   11      C      -0.0550590000    -2.0144270000     0.0123530000
   12      H      -0.8824590000    -2.0146270000     0.7064530000
   13      H       0.4714410000    -2.7182270000     0.6399530000
   14      H      -0.6638590000    -2.5333270000    -0.7131470000
   15      H       0.2428410000     2.8306730000    -1.1492470000
 ----------------------------------------------------------------

   10    -629.4231891992      5.92e-07  Convergence criterion met
 Total energy in the final basis set =     -629.4231891992
        RIMP2         total energy =      -630.6002817255 a.u.

                    Orbital Energies (a.u.)
 --------------------------------------------------------------

 Alpha MOs
 -- Occupied --
-91.9775 -11.2817 -11.2519 -11.2472 -11.2273 -11.2268 -11.2189  -8.9773
 -6.6583  -6.6577  -6.6571  -1.1602  -1.0549  -0.9985  -0.9407  -0.8836
 -0.7426  -0.7209  -0.6496  -0.5884  -0.5742  -0.5658  -0.5598  -0.5436
 -0.5089  -0.4905  -0.4656  -0.4493  -0.3374  -0.2940

          Ground-State Mulliken Net Atomic Charges

     Atom                 Charge (a.u.)
  ----------------------------------------
      1 C                     0.068682
      2 C                    -0.293059
      3 C                     0.042439
      4 H                     0.176463
      5 C                    -0.268139
      6 S                    -0.002330
      7 C                    -0.275224
      8 H                     0.101191
      9 H                     0.107121
     10 H                     0.107340
     11 C                    -0.380495
     12 H                     0.134493
     13 H                     0.151878
     14 H                     0.137201
     15 H                     0.192438
  ----------------------------------------
  Sum of atomic charges =     0.000000

                    Cartesian Multipole Moments
 -----------------------------------------------------------------
    Charge (ESU x 10^10)
                -0.0000
    Dipole Moment (Debye)
         X      -0.4457      Y      -0.4473      Z       1.8775
       Tot       1.9808
    Quadrupole Moments (Debye-Ang)
        XX     -53.9748     XY       1.9273     YY     -42.0885
        XZ       0.2918     YZ      -0.7126     ZZ     -48.6735

 Total job time:  160.63s(wall), 159.06s(cpu)
        *  Thank you very much for using Q-Chem.  Have a nice day.  *
