 Q-Chem 5.4, Q-Chem, Inc., Pleasanton, CA (2021)
 Q-Chem 5.4.0 for Intel X86 EM64T Linux

User input:
--------------------------------------------------------------
$molecule
0 1
C	-0.004104	-0.576312	0.012353
C	-0.004104	0.287288	1.111753
C	-0.004004	1.671188	0.789053
H	-0.004104	-0.081512	2.148453
C	-0.004004	1.891888	-0.600147
S	-0.004104	0.366088	-1.474447
C	-0.004004	2.758988	1.826953
H	-0.004004	2.333288	2.849053
H	-0.896404	3.413288	1.738553
H	0.888396	3.413188	1.738553
C	-0.004104	-2.017012	0.012353
H	0.823196	-2.016712	0.706653
H	-0.530704	-2.720812	0.639853
H	0.604696	-2.535912	-0.713247
H	-0.004004	2.841088	-1.149247
$end

$rem
JOBTYPE		SP
EXCHANGE	HF
CORRELATION	pRIMP2
BASIS		cc-pvtz
METHOD		rimp2
AUX_BASIS	rimp2-cc-pvtz
SOLVENT_METHOD	PCM
PURECART	11111
SYMMETRY	false
MEM_TOTAL	110000
SCF_CONVERGENCE = 6
THRESH=10
$end

$solvent
dielectric 4.90
$end
--------------------------------------------------------------

   10    -629.4238316783      5.96e-07  Convergence criterion met
 Total energy in the final basis set =     -629.4238316783
        RIMP2         total energy =      -630.6006702994 a.u.
 Total job time:  156.47s(wall), 154.97s(cpu)
        *  Thank you very much for using Q-Chem.  Have a nice day.  *
 Q-Chem 5.4, Q-Chem, Inc., Pleasanton, CA (2021)
 Q-Chem 5.4.0 for Intel X86 EM64T Linux

User input:
--------------------------------------------------------------
$molecule
0 1
C	-0.004104	-0.576312	0.012353
C	-0.004104	0.287288	1.111753
C	-0.004004	1.671188	0.789053
H	-0.004104	-0.081512	2.148453
C	-0.004004	1.891888	-0.600147
S	-0.004104	0.366088	-1.474447
C	-0.004004	2.758988	1.826953
H	-0.004004	2.333288	2.849053
H	-0.896404	3.413288	1.738553
H	0.888396	3.413188	1.738553
C	-0.004104	-2.017012	0.012353
H	0.823196	-2.016712	0.706653
H	-0.530704	-2.720812	0.639853
H	0.604696	-2.535912	-0.713247
H	-0.004004	2.841088	-1.149247
$end

$rem
JOBTYPE		SP
EXCHANGE	HF
CORRELATION	pRIMP2
BASIS		cc-pvtz
METHOD		rimp2
AUX_BASIS	rimp2-cc-pvtz
SOLVENT_METHOD	PCM
PURECART	11111
SYMMETRY	false
MEM_TOTAL	110000
SCF_CONVERGENCE = 6
THRESH=10
$end

$solvent
dielectric 4.90
$end
--------------------------------------------------------------

             Standard Nuclear Orientation (Angstroms)
    I     Atom           X                Y                Z
 ----------------------------------------------------------------
    1      C      -0.0041040000    -0.5763120000     0.0123530000
    2      C      -0.0041040000     0.2872880000     1.1117530000
    3      C      -0.0040040000     1.6711880000     0.7890530000
    4      H      -0.0041040000    -0.0815120000     2.1484530000
    5      C      -0.0040040000     1.8918880000    -0.6001470000
    6      S      -0.0041040000     0.3660880000    -1.4744470000
    7      C      -0.0040040000     2.7589880000     1.8269530000
    8      H      -0.0040040000     2.3332880000     2.8490530000
    9      H      -0.8964040000     3.4132880000     1.7385530000
   10      H       0.8883960000     3.4131880000     1.7385530000
   11      C      -0.0041040000    -2.0170120000     0.0123530000
   12      H       0.8231960000    -2.0167120000     0.7066530000
   13      H      -0.5307040000    -2.7208120000     0.6398530000
   14      H       0.6046960000    -2.5359120000    -0.7132470000
   15      H      -0.0040040000     2.8410880000    -1.1492470000
 ----------------------------------------------------------------

   10    -629.4238316783      5.96e-07  Convergence criterion met
 Total energy in the final basis set =     -629.4238316783
        RIMP2         total energy =      -630.6006702994 a.u.

                    Orbital Energies (a.u.)
 --------------------------------------------------------------

 Alpha MOs
 -- Occupied --
-91.9779 -11.2824 -11.2514 -11.2472 -11.2268 -11.2267 -11.2191  -8.9776
 -6.6586  -6.6581  -6.6575  -1.1603  -1.0550  -0.9985  -0.9406  -0.8835
 -0.7425  -0.7209  -0.6496  -0.5888  -0.5740  -0.5663  -0.5596  -0.5437
 -0.5085  -0.4900  -0.4663  -0.4501  -0.3373  -0.2938

          Ground-State Mulliken Net Atomic Charges

     Atom                 Charge (a.u.)
  ----------------------------------------
      1 C                     0.070050
      2 C                    -0.288902
      3 C                     0.040144
      4 H                     0.176194
      5 C                    -0.269150
      6 S                    -0.002535
      7 C                    -0.275162
      8 H                     0.101219
      9 H                     0.107286
     10 H                     0.107152
     11 C                    -0.383735
     12 H                     0.136103
     13 H                     0.152066
     14 H                     0.136741
     15 H                     0.192529
  ----------------------------------------
  Sum of atomic charges =     0.000000

                    Cartesian Multipole Moments
 -----------------------------------------------------------------
    Charge (ESU x 10^10)
                -0.0000
    Dipole Moment (Debye)
         X       0.5544      Y      -0.4759      Z       1.8688
       Tot       2.0066
    Quadrupole Moments (Debye-Ang)
        XX     -54.1044     XY      -1.1591     YY     -42.0191
        XZ      -0.2789     YZ      -0.7112     ZZ     -48.6700

 Total job time:  157.50s(wall), 155.53s(cpu)
        *  Thank you very much for using Q-Chem.  Have a nice day.  *
