 Q-Chem 5.4, Q-Chem, Inc., Pleasanton, CA (2021)
 Q-Chem 5.4.0 for Intel X86 EM64T Linux

User input:
--------------------------------------------------------------
$molecule
0 1
C	-0.342735	-0.485421	0.011685
C	0.089065	0.262479	1.111085
C	0.781065	1.460979	0.788385
H	-0.095335	-0.056921	2.147785
C	0.891365	1.652079	-0.600815
S	0.128465	0.330679	-1.475115
C	1.324965	2.402979	1.826285
H	1.112165	2.034379	2.848385
H	0.879265	3.415779	1.737885
H	2.424965	2.523379	1.737885
C	-0.342735	-1.926121	0.011685
H	0.351365	-1.925821	0.839085
H	-0.970335	-2.629921	0.538185
H	0.382765	-2.445021	-0.597115
H	1.366065	2.474079	-1.149915
$end

$rem
JOBTYPE		SP
EXCHANGE	HF
CORRELATION	pRIMP2
BASIS		cc-pvtz
METHOD		rimp2
AUX_BASIS	rimp2-cc-pvtz
SOLVENT_METHOD	PCM
PURECART	11111
SYMMETRY	false
MEM_TOTAL	110000
SCF_CONVERGENCE = 6
THRESH=10
$end

$solvent
dielectric 4.90
$end
--------------------------------------------------------------

   10    -629.4027221065      5.24e-07  Convergence criterion met
 Total energy in the final basis set =     -629.4027221065
        RIMP2         total energy =      -630.5844838262 a.u.
 Total job time:  159.82s(wall), 159.09s(cpu)
        *  Thank you very much for using Q-Chem.  Have a nice day.  *
 Q-Chem 5.4, Q-Chem, Inc., Pleasanton, CA (2021)
 Q-Chem 5.4.0 for Intel X86 EM64T Linux

User input:
--------------------------------------------------------------
$molecule
0 1
C	-0.342735	-0.485421	0.011685
C	0.089065	0.262479	1.111085
C	0.781065	1.460979	0.788385
H	-0.095335	-0.056921	2.147785
C	0.891365	1.652079	-0.600815
S	0.128465	0.330679	-1.475115
C	1.324965	2.402979	1.826285
H	1.112165	2.034379	2.848385
H	0.879265	3.415779	1.737885
H	2.424965	2.523379	1.737885
C	-0.342735	-1.926121	0.011685
H	0.351365	-1.925821	0.839085
H	-0.970335	-2.629921	0.538185
H	0.382765	-2.445021	-0.597115
H	1.366065	2.474079	-1.149915
$end

$rem
JOBTYPE		SP
EXCHANGE	HF
CORRELATION	pRIMP2
BASIS		cc-pvtz
METHOD		rimp2
AUX_BASIS	rimp2-cc-pvtz
SOLVENT_METHOD	PCM
PURECART	11111
SYMMETRY	false
MEM_TOTAL	110000
SCF_CONVERGENCE = 6
THRESH=10
$end

$solvent
dielectric 4.90
$end
--------------------------------------------------------------

             Standard Nuclear Orientation (Angstroms)
    I     Atom           X                Y                Z
 ----------------------------------------------------------------
    1      C      -0.3427350000    -0.4854210000     0.0116850000
    2      C       0.0890650000     0.2624790000     1.1110850000
    3      C       0.7810650000     1.4609790000     0.7883850000
    4      H      -0.0953350000    -0.0569210000     2.1477850000
    5      C       0.8913650000     1.6520790000    -0.6008150000
    6      S       0.1284650000     0.3306790000    -1.4751150000
    7      C       1.3249650000     2.4029790000     1.8262850000
    8      H       1.1121650000     2.0343790000     2.8483850000
    9      H       0.8792650000     3.4157790000     1.7378850000
   10      H       2.4249650000     2.5233790000     1.7378850000
   11      C      -0.3427350000    -1.9261210000     0.0116850000
   12      H       0.3513650000    -1.9258210000     0.8390850000
   13      H      -0.9703350000    -2.6299210000     0.5381850000
   14      H       0.3827650000    -2.4450210000    -0.5971150000
   15      H       1.3660650000     2.4740790000    -1.1499150000
 ----------------------------------------------------------------

   10    -629.4027221065      5.24e-07  Convergence criterion met
 Total energy in the final basis set =     -629.4027221065
        RIMP2         total energy =      -630.5844838262 a.u.

                    Orbital Energies (a.u.)
 --------------------------------------------------------------

 Alpha MOs
 -- Occupied --
-91.9779 -11.2754 -11.2572 -11.2475 -11.2309 -11.2274 -11.2143  -8.9778
 -6.6587  -6.6581  -6.6576  -1.1639  -1.0548  -0.9987  -0.9379  -0.8828
 -0.7432  -0.7240  -0.6469  -0.5903  -0.5756  -0.5681  -0.5573  -0.5432
 -0.5106  -0.4792  -0.4673  -0.4486  -0.3352  -0.2947

          Ground-State Mulliken Net Atomic Charges

     Atom                 Charge (a.u.)
  ----------------------------------------
      1 C                     0.023137
      2 C                    -0.251569
      3 C                     0.029784
      4 H                     0.175500
      5 C                    -0.254477
      6 S                     0.003543
      7 C                    -0.271018
      8 H                     0.101323
      9 H                     0.107349
     10 H                     0.106061
     11 C                    -0.386743
     12 H                     0.142028
     13 H                     0.143734
     14 H                     0.138581
     15 H                     0.192767
  ----------------------------------------
  Sum of atomic charges =     0.000000

                    Cartesian Multipole Moments
 -----------------------------------------------------------------
    Charge (ESU x 10^10)
                -0.0000
    Dipole Moment (Debye)
         X       1.2149      Y      -0.2345      Z       1.9794
       Tot       2.3343
    Quadrupole Moments (Debye-Ang)
        XX     -52.3127     XY       2.9312     YY     -44.8554
        XZ      -0.3275     YZ      -0.9113     ZZ     -48.4739

 Total job time:  159.62s(wall), 157.52s(cpu)
        *  Thank you very much for using Q-Chem.  Have a nice day.  *
