 Q-Chem 5.4, Q-Chem, Inc., Pleasanton, CA (2021)
 Q-Chem 5.4.0 for Intel X86 EM64T Linux

User input:
--------------------------------------------------------------
$molecule
0 1
C	-0.431954	-0.417594	0.012353
C	0.123146	0.243906	1.111753
C	1.012746	1.304106	0.789053
H	-0.113854	-0.038594	2.148453
C	1.154646	1.473106	-0.600147
S	0.173846	0.304306	-1.474447
C	1.711946	2.137306	1.826953
H	1.438346	1.811306	2.849053
H	1.448946	3.212106	1.738553
H	2.816146	2.064906	1.738553
C	-0.431954	-1.858294	0.012353
H	-1.259354	-1.858494	0.706453
H	0.094546	-2.562094	0.639953
H	-1.040754	-2.377194	-0.713147
H	1.764746	2.200206	-1.149247
$end

$rem
JOBTYPE		SP
EXCHANGE	HF
CORRELATION	pRIMP2
BASIS		cc-pvtz
METHOD		rimp2
AUX_BASIS	rimp2-cc-pvtz
SOLVENT_METHOD	PCM
PURECART	11111
SYMMETRY	false
MEM_TOTAL	110000
SCF_CONVERGENCE = 6
THRESH=10
$end

$solvent
dielectric 4.90
$end
--------------------------------------------------------------

             Standard Nuclear Orientation (Angstroms)
    I     Atom           X                Y                Z
 ----------------------------------------------------------------
    1      C      -0.4319540000    -0.4175940000     0.0123530000
    2      C       0.1231460000     0.2439060000     1.1117530000
    3      C       1.0127460000     1.3041060000     0.7890530000
    4      H      -0.1138540000    -0.0385940000     2.1484530000
    5      C       1.1546460000     1.4731060000    -0.6001470000
    6      S       0.1738460000     0.3043060000    -1.4744470000
    7      C       1.7119460000     2.1373060000     1.8269530000
    8      H       1.4383460000     1.8113060000     2.8490530000
    9      H       1.4489460000     3.2121060000     1.7385530000
   10      H       2.8161460000     2.0649060000     1.7385530000
   11      C      -0.4319540000    -1.8582940000     0.0123530000
   12      H      -1.2593540000    -1.8584940000     0.7064530000
   13      H       0.0945460000    -2.5620940000     0.6399530000
   14      H      -1.0407540000    -2.3771940000    -0.7131470000
   15      H       1.7647460000     2.2002060000    -1.1492470000
 ----------------------------------------------------------------

   10    -629.3885943933      6.06e-07  Convergence criterion met
 Total energy in the final basis set =     -629.3885943933
        RIMP2         total energy =      -630.5739775200 a.u.

                    Orbital Energies (a.u.)
 --------------------------------------------------------------

 Alpha MOs
 -- Occupied --
-91.9731 -11.2655 -11.2639 -11.2483 -11.2397 -11.2278 -11.2119  -8.9736
 -6.6545  -6.6538  -6.6534  -1.1644  -1.0537  -0.9980  -0.9394  -0.8836
 -0.7448  -0.7253  -0.6464  -0.5845  -0.5788  -0.5650  -0.5574  -0.5427
 -0.5153  -0.4880  -0.4606  -0.4338  -0.3372  -0.2941

          Ground-State Mulliken Net Atomic Charges

     Atom                 Charge (a.u.)
  ----------------------------------------
      1 C                    -0.016505
      2 C                    -0.231132
      3 C                     0.023127
      4 H                     0.178834
      5 C                    -0.227322
      6 S                     0.002305
      7 C                    -0.270209
      8 H                     0.101361
      9 H                     0.106953
     10 H                     0.106197
     11 C                    -0.379005
     12 H                     0.124973
     13 H                     0.157099
     14 H                     0.130272
     15 H                     0.193052
  ----------------------------------------
  Sum of atomic charges =     0.000000

                    Cartesian Multipole Moments
 -----------------------------------------------------------------
    Charge (ESU x 10^10)
                -0.0000
    Dipole Moment (Debye)
         X       0.7524      Y       0.0319      Z       2.0202
       Tot       2.1560
    Quadrupole Moments (Debye-Ang)
        XX     -50.3255     XY       5.4417     YY     -46.3785
        XZ       0.1936     YZ      -0.7484     ZZ     -48.3834

 Total job time:  157.82s(wall), 155.03s(cpu)
        *  Thank you very much for using Q-Chem.  Have a nice day.  *
