 Q-Chem 5.4, Q-Chem, Inc., Pleasanton, CA (2021)
 Q-Chem 5.4.0 for Intel X86 EM64T Linux

User input:
--------------------------------------------------------------
$molecule
0 1
C	0.004737	-0.576312	0.016152
C	0.004737	0.287288	1.115552
C	0.004837	1.671188	0.792852
H	0.004737	-0.081512	2.152252
C	0.004837	1.891888	-0.596348
S	0.004737	0.366088	-1.470648
C	0.004837	2.758988	1.830752
H	0.004837	2.333288	2.852852
H	-0.887563	3.413288	1.742352
H	0.897237	3.413188	1.742352
C	0.004737	-2.017012	0.016152
H	-1.010063	-2.016712	-0.353348
H	0.284937	-2.720812	-0.753648
H	-0.319163	-2.535912	0.906152
H	0.004837	2.841088	-1.145448
$end

$rem
JOBTYPE		SP
EXCHANGE	HF
CORRELATION	pRIMP2
BASIS		cc-pvtz
METHOD		rimp2
AUX_BASIS	rimp2-cc-pvtz
SOLVENT_METHOD	PCM
PURECART	11111
SYMMETRY	false
MEM_TOTAL	110000
SCF_CONVERGENCE = 6
THRESH=10
$end

$solvent
dielectric 4.90
$end
--------------------------------------------------------------

             Standard Nuclear Orientation (Angstroms)
    I     Atom           X                Y                Z
 ----------------------------------------------------------------
    1      C       0.0047370000    -0.5763120000     0.0161520000
    2      C       0.0047370000     0.2872880000     1.1155520000
    3      C       0.0048370000     1.6711880000     0.7928520000
    4      H       0.0047370000    -0.0815120000     2.1522520000
    5      C       0.0048370000     1.8918880000    -0.5963480000
    6      S       0.0047370000     0.3660880000    -1.4706480000
    7      C       0.0048370000     2.7589880000     1.8307520000
    8      H       0.0048370000     2.3332880000     2.8528520000
    9      H      -0.8875630000     3.4132880000     1.7423520000
   10      H       0.8972370000     3.4131880000     1.7423520000
   11      C       0.0047370000    -2.0170120000     0.0161520000
   12      H      -1.0100630000    -2.0167120000    -0.3533480000
   13      H       0.2849370000    -2.7208120000    -0.7536480000
   14      H      -0.3191630000    -2.5359120000     0.9061520000
   15      H       0.0048370000     2.8410880000    -1.1454480000
 ----------------------------------------------------------------

   10    -629.4248829655      6.81e-07  Convergence criterion met
 Total energy in the final basis set =     -629.4248829655
        RIMP2         total energy =      -630.6000683953 a.u.

                    Orbital Energies (a.u.)
 --------------------------------------------------------------

 Alpha MOs
 -- Occupied --
-91.9776 -11.2849 -11.2501 -11.2468 -11.2264 -11.2244 -11.2217  -8.9775
 -6.6585  -6.6580  -6.6573  -1.1603  -1.0563  -0.9968  -0.9432  -0.8824
 -0.7448  -0.7184  -0.6477  -0.5901  -0.5759  -0.5691  -0.5504  -0.5472
 -0.5078  -0.4928  -0.4656  -0.4555  -0.3390  -0.2901

          Ground-State Mulliken Net Atomic Charges

     Atom                 Charge (a.u.)
  ----------------------------------------
      1 C                     0.058408
      2 C                    -0.295893
      3 C                     0.044453
      4 H                     0.180087
      5 C                    -0.273046
      6 S                    -0.007880
      7 C                    -0.274123
      8 H                     0.101286
      9 H                     0.107318
     10 H                     0.107317
     11 C                    -0.377469
     12 H                     0.137670
     13 H                     0.158918
     14 H                     0.139702
     15 H                     0.193251
  ----------------------------------------
  Sum of atomic charges =     0.000000

                    Cartesian Multipole Moments
 -----------------------------------------------------------------
    Charge (ESU x 10^10)
                -0.0000
    Dipole Moment (Debye)
         X      -0.6862      Y      -0.6560      Z       1.1854
       Tot       1.5187
    Quadrupole Moments (Debye-Ang)
        XX     -54.3466     XY       1.4087     YY     -41.6801
        XZ      -0.2176     YZ       0.9673     ZZ     -48.6420

 Total job time:  164.13s(wall), 160.64s(cpu)
        *  Thank you very much for using Q-Chem.  Have a nice day.  *
