 Q-Chem 5.4, Q-Chem, Inc., Pleasanton, CA (2021)
 Q-Chem 5.4.0 for Intel X86 EM64T Linux

User input:
--------------------------------------------------------------
$molecule
0 1
C	-0.233940	-0.535397	0.019521
C	0.061460	0.276103	1.118921
C	0.534760	1.576503	0.796221
H	-0.064640	-0.070397	2.155621
C	0.610260	1.783903	-0.592979
S	0.088360	0.350203	-1.467279
C	0.906860	2.598703	1.834121
H	0.761260	2.198703	2.856221
H	0.292060	3.518703	1.745721
H	1.969260	2.908303	1.745721
C	-0.233940	-1.976097	0.019521
H	0.306160	-1.975797	-0.915679
H	0.475460	-2.679897	0.429121
H	-1.054140	-2.494997	-0.454079
H	0.934960	2.675903	-1.142079
$end

$rem
JOBTYPE		SP
EXCHANGE	HF
CORRELATION	pRIMP2
BASIS		cc-pvtz
METHOD		rimp2
AUX_BASIS	rimp2-cc-pvtz
SOLVENT_METHOD	PCM
PURECART	11111
SYMMETRY	false
MEM_TOTAL	110000
SCF_CONVERGENCE = 6
THRESH=10
$end

$solvent
dielectric 4.90
$end
--------------------------------------------------------------

   10    -629.4124485045      6.02e-07  Convergence criterion met
 Total energy in the final basis set =     -629.4124485045
        RIMP2         total energy =      -630.5912140704 a.u.
 Total job time:  158.53s(wall), 155.51s(cpu)
        *  Thank you very much for using Q-Chem.  Have a nice day.  *
 Q-Chem 5.4, Q-Chem, Inc., Pleasanton, CA (2021)
 Q-Chem 5.4.0 for Intel X86 EM64T Linux

User input:
--------------------------------------------------------------
$molecule
0 1
C	-0.233940	-0.535397	0.019521
C	0.061460	0.276103	1.118921
C	0.534760	1.576503	0.796221
H	-0.064640	-0.070397	2.155621
C	0.610260	1.783903	-0.592979
S	0.088360	0.350203	-1.467279
C	0.906860	2.598703	1.834121
H	0.761260	2.198703	2.856221
H	0.292060	3.518703	1.745721
H	1.969260	2.908303	1.745721
C	-0.233940	-1.976097	0.019521
H	0.306160	-1.975797	-0.915679
H	0.475460	-2.679897	0.429121
H	-1.054140	-2.494997	-0.454079
H	0.934960	2.675903	-1.142079
$end

$rem
JOBTYPE		SP
EXCHANGE	HF
CORRELATION	pRIMP2
BASIS		cc-pvtz
METHOD		rimp2
AUX_BASIS	rimp2-cc-pvtz
SOLVENT_METHOD	PCM
PURECART	11111
SYMMETRY	false
MEM_TOTAL	110000
SCF_CONVERGENCE = 6
THRESH=10
$end

$solvent
dielectric 4.90
$end
--------------------------------------------------------------

             Standard Nuclear Orientation (Angstroms)
    I     Atom           X                Y                Z
 ----------------------------------------------------------------
    1      C      -0.2339400000    -0.5353970000     0.0195210000
    2      C       0.0614600000     0.2761030000     1.1189210000
    3      C       0.5347600000     1.5765030000     0.7962210000
    4      H      -0.0646400000    -0.0703970000     2.1556210000
    5      C       0.6102600000     1.7839030000    -0.5929790000
    6      S       0.0883600000     0.3502030000    -1.4672790000
    7      C       0.9068600000     2.5987030000     1.8341210000
    8      H       0.7612600000     2.1987030000     2.8562210000
    9      H       0.2920600000     3.5187030000     1.7457210000
   10      H       1.9692600000     2.9083030000     1.7457210000
   11      C      -0.2339400000    -1.9760970000     0.0195210000
   12      H       0.3061600000    -1.9757970000    -0.9156790000
   13      H       0.4754600000    -2.6798970000     0.4291210000
   14      H      -1.0541400000    -2.4949970000    -0.4540790000
   15      H       0.9349600000     2.6759030000    -1.1420790000
 ----------------------------------------------------------------

   10    -629.4124485045      6.02e-07  Convergence criterion met
 Total energy in the final basis set =     -629.4124485045
        RIMP2         total energy =      -630.5912140704 a.u.

                    Orbital Energies (a.u.)
 --------------------------------------------------------------

 Alpha MOs
 -- Occupied --
-91.9778 -11.2746 -11.2583 -11.2469 -11.2306 -11.2269 -11.2154  -8.9781
 -6.6590  -6.6585  -6.6578  -1.1623  -1.0556  -0.9949  -0.9456  -0.8810
 -0.7479  -0.7193  -0.6481  -0.5890  -0.5769  -0.5653  -0.5531  -0.5476
 -0.5105  -0.4849  -0.4640  -0.4467  -0.3389  -0.2989

          Ground-State Mulliken Net Atomic Charges

     Atom                 Charge (a.u.)
  ----------------------------------------
      1 C                     0.044133
      2 C                    -0.285723
      3 C                     0.050558
      4 H                     0.179958
      5 C                    -0.256690
      6 S                    -0.004823
      7 C                    -0.272067
      8 H                     0.101745
      9 H                     0.107319
     10 H                     0.106662
     11 C                    -0.370544
     12 H                     0.124403
     13 H                     0.154566
     14 H                     0.125798
     15 H                     0.194704
  ----------------------------------------
  Sum of atomic charges =     0.000000

                    Cartesian Multipole Moments
 -----------------------------------------------------------------
    Charge (ESU x 10^10)
                -0.0000
    Dipole Moment (Debye)
         X       0.8647      Y      -0.0752      Z       0.9341
       Tot       1.2752
    Quadrupole Moments (Debye-Ang)
        XX     -53.0687     XY       2.0084     YY     -43.3310
        XZ       0.4004     YZ       1.3045     ZZ     -48.6956

 Total job time:  156.13s(wall), 155.09s(cpu)
        *  Thank you very much for using Q-Chem.  Have a nice day.  *
