 Q-Chem 5.4, Q-Chem, Inc., Pleasanton, CA (2021)
 Q-Chem 5.4.0 for Intel X86 EM64T Linux

User input:
--------------------------------------------------------------
$molecule
0 1
C	-0.440529	-0.417597	0.013103
C	0.114571	0.243903	1.112503
C	1.004171	1.304103	0.789803
H	-0.122429	-0.038597	2.149203
C	1.146071	1.473103	-0.599397
S	0.165271	0.304303	-1.473697
C	1.703371	2.137303	1.827703
H	1.429771	1.811303	2.849803
H	1.440371	3.212103	1.739303
H	2.807571	2.064903	1.739303
C	-0.440529	-1.858297	0.013103
H	0.494671	-1.857997	0.553203
H	-0.850129	-2.562097	0.722503
H	0.033071	-2.377197	-0.807097
H	1.756171	2.200203	-1.148497
$end

$rem
JOBTYPE		SP
EXCHANGE	HF
CORRELATION	pRIMP2
BASIS		cc-pvtz
METHOD		rimp2
AUX_BASIS	rimp2-cc-pvtz
SOLVENT_METHOD	PCM
PURECART	11111
SYMMETRY	false
MEM_TOTAL	110000
SCF_CONVERGENCE = 6
THRESH=10
$end

$solvent
dielectric 4.90
$end
--------------------------------------------------------------

             Standard Nuclear Orientation (Angstroms)
    I     Atom           X                Y                Z
 ----------------------------------------------------------------
    1      C      -0.4405290000    -0.4175970000     0.0131030000
    2      C       0.1145710000     0.2439030000     1.1125030000
    3      C       1.0041710000     1.3041030000     0.7898030000
    4      H      -0.1224290000    -0.0385970000     2.1492030000
    5      C       1.1460710000     1.4731030000    -0.5993970000
    6      S       0.1652710000     0.3043030000    -1.4736970000
    7      C       1.7033710000     2.1373030000     1.8277030000
    8      H       1.4297710000     1.8113030000     2.8498030000
    9      H       1.4403710000     3.2121030000     1.7393030000
   10      H       2.8075710000     2.0649030000     1.7393030000
   11      C      -0.4405290000    -1.8582970000     0.0131030000
   12      H       0.4946710000    -1.8579970000     0.5532030000
   13      H      -0.8501290000    -2.5620970000     0.7225030000
   14      H       0.0330710000    -2.3771970000    -0.8070970000
   15      H       1.7561710000     2.2002030000    -1.1484970000
 ----------------------------------------------------------------

   10    -629.3873396531      5.91e-07  Convergence criterion met
 Total energy in the final basis set =     -629.3873396531
        RIMP2         total energy =      -630.5721072125 a.u.

                    Orbital Energies (a.u.)
 --------------------------------------------------------------

 Alpha MOs
 -- Occupied --
-91.9794 -11.2733 -11.2594 -11.2485 -11.2299 -11.2275 -11.2147  -8.9793
 -6.6602  -6.6595  -6.6591  -1.1671  -1.0561  -0.9981  -0.9375  -0.8819
 -0.7450  -0.7241  -0.6465  -0.5893  -0.5762  -0.5683  -0.5557  -0.5447
 -0.5100  -0.4827  -0.4612  -0.4559  -0.3355  -0.2885

          Ground-State Mulliken Net Atomic Charges

     Atom                 Charge (a.u.)
  ----------------------------------------
      1 C                    -0.007599
      2 C                    -0.228640
      3 C                     0.023627
      4 H                     0.175398
      5 C                    -0.254379
      6 S                     0.014207
      7 C                    -0.269902
      8 H                     0.101662
      9 H                     0.107526
     10 H                     0.105220
     11 C                    -0.384379
     12 H                     0.145987
     13 H                     0.141322
     14 H                     0.135820
     15 H                     0.194131
  ----------------------------------------
  Sum of atomic charges =     0.000000

                    Cartesian Multipole Moments
 -----------------------------------------------------------------
    Charge (ESU x 10^10)
                -0.0000
    Dipole Moment (Debye)
         X       1.6326      Y      -0.3217      Z       1.7709
       Tot       2.4300
    Quadrupole Moments (Debye-Ang)
        XX     -51.4805     XY       3.3804     YY     -46.4062
        XZ      -0.2197     YZ      -0.6700     ZZ     -48.1662

 Total job time:  161.75s(wall), 160.04s(cpu)
        *  Thank you very much for using Q-Chem.  Have a nice day.  *
