 Q-Chem 5.4, Q-Chem, Inc., Pleasanton, CA (2021)
 Q-Chem 5.4.0 for Intel X86 EM64T Linux

User input:
--------------------------------------------------------------
$molecule
0 1
C	-0.001425	-0.576312	0.010354
C	-0.001425	0.287288	1.109754
C	-0.001325	1.671188	0.787054
H	-0.001425	-0.081512	2.146454
C	-0.001325	1.891888	-0.602146
S	-0.001425	0.366088	-1.476446
C	-0.001325	2.758988	1.824954
H	-0.001325	2.333288	2.847054
H	-0.893725	3.413288	1.736554
H	0.891075	3.413188	1.736554
C	-0.001425	-2.017012	0.010354
H	0.185975	-2.016712	1.073954
H	-0.808225	-2.720812	0.152554
H	0.931275	-2.535912	-0.154146
H	-0.001325	2.841088	-1.151246
$end

$rem
JOBTYPE		SP
EXCHANGE	HF
CORRELATION	pRIMP2
BASIS		cc-pvtz
METHOD		rimp2
AUX_BASIS	rimp2-cc-pvtz
SOLVENT_METHOD	PCM
PURECART	11111
SYMMETRY	false
MEM_TOTAL	110000
SCF_CONVERGENCE = 6
THRESH=10
$end

$solvent
dielectric 4.90
$end
--------------------------------------------------------------

   10    -629.4250985035      4.94e-07  Convergence criterion met
 Total energy in the final basis set =     -629.4250985035
        RIMP2         total energy =      -630.6028838572 a.u.
 Total job time:  156.62s(wall), 154.98s(cpu)
        *  Thank you very much for using Q-Chem.  Have a nice day.  *
 Q-Chem 5.4, Q-Chem, Inc., Pleasanton, CA (2021)
 Q-Chem 5.4.0 for Intel X86 EM64T Linux

User input:
--------------------------------------------------------------
$molecule
0 1
C	-0.001425	-0.576312	0.010354
C	-0.001425	0.287288	1.109754
C	-0.001325	1.671188	0.787054
H	-0.001425	-0.081512	2.146454
C	-0.001325	1.891888	-0.602146
S	-0.001425	0.366088	-1.476446
C	-0.001325	2.758988	1.824954
H	-0.001325	2.333288	2.847054
H	-0.893725	3.413288	1.736554
H	0.891075	3.413188	1.736554
C	-0.001425	-2.017012	0.010354
H	0.185975	-2.016712	1.073954
H	-0.808225	-2.720812	0.152554
H	0.931275	-2.535912	-0.154146
H	-0.001325	2.841088	-1.151246
$end

$rem
JOBTYPE		SP
EXCHANGE	HF
CORRELATION	pRIMP2
BASIS		cc-pvtz
METHOD		rimp2
AUX_BASIS	rimp2-cc-pvtz
SOLVENT_METHOD	PCM
PURECART	11111
SYMMETRY	false
MEM_TOTAL	110000
SCF_CONVERGENCE = 6
THRESH=10
$end

$solvent
dielectric 4.90
$end
--------------------------------------------------------------

             Standard Nuclear Orientation (Angstroms)
    I     Atom           X                Y                Z
 ----------------------------------------------------------------
    1      C      -0.0014250000    -0.5763120000     0.0103540000
    2      C      -0.0014250000     0.2872880000     1.1097540000
    3      C      -0.0013250000     1.6711880000     0.7870540000
    4      H      -0.0014250000    -0.0815120000     2.1464540000
    5      C      -0.0013250000     1.8918880000    -0.6021460000
    6      S      -0.0014250000     0.3660880000    -1.4764460000
    7      C      -0.0013250000     2.7589880000     1.8249540000
    8      H      -0.0013250000     2.3332880000     2.8470540000
    9      H      -0.8937250000     3.4132880000     1.7365540000
   10      H       0.8910750000     3.4131880000     1.7365540000
   11      C      -0.0014250000    -2.0170120000     0.0103540000
   12      H       0.1859750000    -2.0167120000     1.0739540000
   13      H      -0.8082250000    -2.7208120000     0.1525540000
   14      H       0.9312750000    -2.5359120000    -0.1541460000
   15      H      -0.0013250000     2.8410880000    -1.1512460000
 ----------------------------------------------------------------

   10    -629.4250985035      4.94e-07  Convergence criterion met
 Total energy in the final basis set =     -629.4250985035
        RIMP2         total energy =      -630.6028838572 a.u.

                    Orbital Energies (a.u.)
 --------------------------------------------------------------

 Alpha MOs
 -- Occupied --
-91.9750 -11.2778 -11.2572 -11.2470 -11.2341 -11.2274 -11.2165  -8.9752
 -6.6561  -6.6555  -6.6550  -1.1610  -1.0540  -0.9997  -0.9398  -0.8845
 -0.7423  -0.7241  -0.6491  -0.5913  -0.5776  -0.5660  -0.5599  -0.5420
 -0.5102  -0.4855  -0.4679  -0.4379  -0.3380  -0.3039

          Ground-State Mulliken Net Atomic Charges

     Atom                 Charge (a.u.)
  ----------------------------------------
      1 C                     0.067754
      2 C                    -0.269744
      3 C                     0.030047
      4 H                     0.177598
      5 C                    -0.250538
      6 S                    -0.008765
      7 C                    -0.273912
      8 H                     0.101131
      9 H                     0.107256
     10 H                     0.107206
     11 C                    -0.373577
     12 H                     0.120486
     13 H                     0.141751
     14 H                     0.129974
     15 H                     0.193334
  ----------------------------------------
  Sum of atomic charges =     0.000000

                    Cartesian Multipole Moments
 -----------------------------------------------------------------
    Charge (ESU x 10^10)
                -0.0000
    Dipole Moment (Debye)
         X       0.1290      Y      -0.0761      Z       2.1368
       Tot       2.1420
    Quadrupole Moments (Debye-Ang)
        XX     -53.7114     XY      -0.1729     YY     -42.1546
        XZ      -0.1138     YZ      -1.0963     ZZ     -48.9523

 Total job time:  157.60s(wall), 156.07s(cpu)
        *  Thank you very much for using Q-Chem.  Have a nice day.  *
