 Q-Chem 5.4, Q-Chem, Inc., Pleasanton, CA (2021)
 Q-Chem 5.4.0 for Intel X86 EM64T Linux

User input:
--------------------------------------------------------------
$molecule
0 1
C	-0.056222	-0.573729	0.018946
C	0.019078	0.286571	1.118346
C	0.139678	1.665271	0.795646
H	-0.013022	-0.080829	2.155046
C	0.158978	1.885071	-0.593554
S	0.025978	0.365071	-1.467854
C	0.234578	2.748871	1.833546
H	0.197478	2.324771	2.855646
H	-0.597422	3.478371	1.745146
H	1.180578	3.322871	1.745146
C	-0.056222	-2.014429	0.018946
H	-0.596122	-2.014129	-0.916454
H	0.653278	-2.718229	-0.390554
H	-0.876422	-2.533329	0.492546
H	0.241678	2.830671	-1.142654
$end

$rem
JOBTYPE		SP
EXCHANGE	HF
CORRELATION	pRIMP2
BASIS		cc-pvtz
METHOD		rimp2
AUX_BASIS	rimp2-cc-pvtz
SOLVENT_METHOD	PCM
PURECART	11111
SYMMETRY	false
MEM_TOTAL	110000
SCF_CONVERGENCE = 6
THRESH=10
$end

$solvent
dielectric 4.90
$end
--------------------------------------------------------------

             Standard Nuclear Orientation (Angstroms)
    I     Atom           X                Y                Z
 ----------------------------------------------------------------
    1      C      -0.0562220000    -0.5737290000     0.0189460000
    2      C       0.0190780000     0.2865710000     1.1183460000
    3      C       0.1396780000     1.6652710000     0.7956460000
    4      H      -0.0130220000    -0.0808290000     2.1550460000
    5      C       0.1589780000     1.8850710000    -0.5935540000
    6      S       0.0259780000     0.3650710000    -1.4678540000
    7      C       0.2345780000     2.7488710000     1.8335460000
    8      H       0.1974780000     2.3247710000     2.8556460000
    9      H      -0.5974220000     3.4783710000     1.7451460000
   10      H       1.1805780000     3.3228710000     1.7451460000
   11      C      -0.0562220000    -2.0144290000     0.0189460000
   12      H      -0.5961220000    -2.0141290000    -0.9164540000
   13      H       0.6532780000    -2.7182290000    -0.3905540000
   14      H      -0.8764220000    -2.5333290000     0.4925460000
   15      H       0.2416780000     2.8306710000    -1.1426540000
 ----------------------------------------------------------------

   10    -629.4211346718      5.63e-07  Convergence criterion met
 Total energy in the final basis set =     -629.4211346718
        RIMP2         total energy =      -630.5984979718 a.u.

                    Orbital Energies (a.u.)
 --------------------------------------------------------------

 Alpha MOs
 -- Occupied --
-91.9796 -11.2769 -11.2564 -11.2471 -11.2286 -11.2268 -11.2169  -8.9794
 -6.6604  -6.6599  -6.6592  -1.1607  -1.0551  -0.9957  -0.9457  -0.8820
 -0.7472  -0.7186  -0.6477  -0.5912  -0.5755  -0.5675  -0.5519  -0.5474
 -0.5091  -0.4864  -0.4649  -0.4479  -0.3387  -0.2999

          Ground-State Mulliken Net Atomic Charges

     Atom                 Charge (a.u.)
  ----------------------------------------
      1 C                     0.047001
      2 C                    -0.261997
      3 C                     0.034905
      4 H                     0.180670
      5 C                    -0.257279
      6 S                    -0.003237
      7 C                    -0.273493
      8 H                     0.101670
      9 H                     0.106921
     10 H                     0.107068
     11 C                    -0.367932
     12 H                     0.115244
     13 H                     0.141117
     14 H                     0.134826
     15 H                     0.194516
  ----------------------------------------
  Sum of atomic charges =     0.000000

                    Cartesian Multipole Moments
 -----------------------------------------------------------------
    Charge (ESU x 10^10)
                -0.0000
    Dipole Moment (Debye)
         X      -0.2146      Y      -0.0997      Z       0.9244
       Tot       0.9542
    Quadrupole Moments (Debye-Ang)
        XX     -53.7779     XY       1.4359     YY     -42.1434
        XZ      -0.2471     YZ       1.4302     ZZ     -48.7694

 Total job time:  157.96s(wall), 157.08s(cpu)
        *  Thank you very much for using Q-Chem.  Have a nice day.  *
