 Q-Chem 5.4, Q-Chem, Inc., Pleasanton, CA (2021)
 Q-Chem 5.4.0 for Intel X86 EM64T Linux

User input:
--------------------------------------------------------------
$molecule
0 1
C	-0.282609	-0.512746	0.017710
C	0.082391	0.269954	1.117110
C	0.667291	1.524154	0.794410
H	-0.073509	-0.064346	2.153810
C	0.760591	1.724154	-0.594790
S	0.115691	0.341354	-1.469090
C	1.126991	2.509954	1.832310
H	0.947091	2.124254	2.854410
H	0.594691	3.480154	1.743910
H	2.212291	2.725854	1.743910
C	-0.282609	-1.953446	0.017710
H	-1.109909	-1.953146	-0.676590
H	0.243991	-2.657246	-0.609790
H	-0.891409	-2.472346	0.743310
H	1.161691	2.584454	-1.143890
$end

$rem
JOBTYPE		SP
EXCHANGE	HF
CORRELATION	pRIMP2
BASIS		cc-pvtz
METHOD		rimp2
AUX_BASIS	rimp2-cc-pvtz
SOLVENT_METHOD	PCM
PURECART	11111
SYMMETRY	false
MEM_TOTAL	110000
SCF_CONVERGENCE = 6
THRESH=10
$end

$solvent
dielectric 4.90
$end
--------------------------------------------------------------

             Standard Nuclear Orientation (Angstroms)
    I     Atom           X                Y                Z
 ----------------------------------------------------------------
    1      C      -0.2826090000    -0.5127460000     0.0177100000
    2      C       0.0823910000     0.2699540000     1.1171100000
    3      C       0.6672910000     1.5241540000     0.7944100000
    4      H      -0.0735090000    -0.0643460000     2.1538100000
    5      C       0.7605910000     1.7241540000    -0.5947900000
    6      S       0.1156910000     0.3413540000    -1.4690900000
    7      C       1.1269910000     2.5099540000     1.8323100000
    8      H       0.9470910000     2.1242540000     2.8544100000
    9      H       0.5946910000     3.4801540000     1.7439100000
   10      H       2.2122910000     2.7258540000     1.7439100000
   11      C      -0.2826090000    -1.9534460000     0.0177100000
   12      H      -1.1099090000    -1.9531460000    -0.6765900000
   13      H       0.2439910000    -2.6572460000    -0.6097900000
   14      H      -0.8914090000    -2.4723460000     0.7433100000
   15      H       1.1616910000     2.5844540000    -1.1438900000
 ----------------------------------------------------------------

   10    -629.4073089150      5.31e-07  Convergence criterion met
 Total energy in the final basis set =     -629.4073089150
        RIMP2         total energy =      -630.5874246991 a.u.

                    Orbital Energies (a.u.)
 --------------------------------------------------------------

 Alpha MOs
 -- Occupied --
-91.9784 -11.2734 -11.2585 -11.2473 -11.2303 -11.2269 -11.2154  -8.9784
 -6.6593  -6.6588  -6.6582  -1.1617  -1.0545  -0.9959  -0.9443  -0.8822
 -0.7468  -0.7199  -0.6457  -0.5890  -0.5749  -0.5711  -0.5505  -0.5462
 -0.5118  -0.4844  -0.4603  -0.4512  -0.3381  -0.2943

          Ground-State Mulliken Net Atomic Charges

     Atom                 Charge (a.u.)
  ----------------------------------------
      1 C                    -0.002156
      2 C                    -0.241309
      3 C                     0.032923
      4 H                     0.181233
      5 C                    -0.247694
      6 S                    -0.005208
      7 C                    -0.271977
      8 H                     0.101566
      9 H                     0.106889
     10 H                     0.106430
     11 C                    -0.367009
     12 H                     0.122395
     13 H                     0.156153
     14 H                     0.133338
     15 H                     0.194426
  ----------------------------------------
  Sum of atomic charges =     0.000000

                    Cartesian Multipole Moments
 -----------------------------------------------------------------
    Charge (ESU x 10^10)
                -0.0000
    Dipole Moment (Debye)
         X       0.1603      Y      -0.1186      Z       1.1064
       Tot       1.1243
    Quadrupole Moments (Debye-Ang)
        XX     -52.4058     XY       4.4431     YY     -43.8039
        XZ      -0.1966     YZ       1.0489     ZZ     -48.5477

 Total job time:  157.77s(wall), 155.28s(cpu)
        *  Thank you very much for using Q-Chem.  Have a nice day.  *
