 Q-Chem 5.4, Q-Chem, Inc., Pleasanton, CA (2021)
 Q-Chem 5.4.0 for Intel X86 EM64T Linux

User input:
--------------------------------------------------------------
$molecule
0 1
C	-0.120735	-0.566010	0.011118
C	0.029265	0.284490	1.110518
C	0.269565	1.647390	0.787818
H	-0.034835	-0.078710	2.147218
C	0.307965	1.864690	-0.601382
S	0.042965	0.362090	-1.475682
C	0.458465	2.718590	1.825718
H	0.384565	2.299390	2.847818
H	-0.306735	3.517890	1.737318
H	1.450965	3.207890	1.737318
C	-0.120735	-2.006710	0.011118
H	0.419165	-2.006410	0.946518
H	-0.830235	-2.710510	0.420618
H	0.699465	-2.525610	-0.462482
H	0.472765	2.799390	-1.150482
$end

$rem
JOBTYPE		SP
EXCHANGE	HF
CORRELATION	pRIMP2
BASIS		cc-pvtz
METHOD		rimp2
AUX_BASIS	rimp2-cc-pvtz
SOLVENT_METHOD	PCM
PURECART	11111
SYMMETRY	false
MEM_TOTAL	110000
SCF_CONVERGENCE = 6
THRESH=10
$end

$solvent
dielectric 4.90
$end
--------------------------------------------------------------

   10    -629.4220259742      5.24e-07  Convergence criterion met
 Total energy in the final basis set =     -629.4220259742
        RIMP2         total energy =      -630.5999429727 a.u.
 Total job time:  157.11s(wall), 155.35s(cpu)
        *  Thank you very much for using Q-Chem.  Have a nice day.  *
 Q-Chem 5.4, Q-Chem, Inc., Pleasanton, CA (2021)
 Q-Chem 5.4.0 for Intel X86 EM64T Linux

User input:
--------------------------------------------------------------
$molecule
0 1
C	-0.120735	-0.566010	0.011118
C	0.029265	0.284490	1.110518
C	0.269565	1.647390	0.787818
H	-0.034835	-0.078710	2.147218
C	0.307965	1.864690	-0.601382
S	0.042965	0.362090	-1.475682
C	0.458465	2.718590	1.825718
H	0.384565	2.299390	2.847818
H	-0.306735	3.517890	1.737318
H	1.450965	3.207890	1.737318
C	-0.120735	-2.006710	0.011118
H	0.419165	-2.006410	0.946518
H	-0.830235	-2.710510	0.420618
H	0.699465	-2.525610	-0.462482
H	0.472765	2.799390	-1.150482
$end

$rem
JOBTYPE		SP
EXCHANGE	HF
CORRELATION	pRIMP2
BASIS		cc-pvtz
METHOD		rimp2
AUX_BASIS	rimp2-cc-pvtz
SOLVENT_METHOD	PCM
PURECART	11111
SYMMETRY	false
MEM_TOTAL	110000
SCF_CONVERGENCE = 6
THRESH=10
$end

$solvent
dielectric 4.90
$end
--------------------------------------------------------------

             Standard Nuclear Orientation (Angstroms)
    I     Atom           X                Y                Z
 ----------------------------------------------------------------
    1      C      -0.1207350000    -0.5660100000     0.0111180000
    2      C       0.0292650000     0.2844900000     1.1105180000
    3      C       0.2695650000     1.6473900000     0.7878180000
    4      H      -0.0348350000    -0.0787100000     2.1472180000
    5      C       0.3079650000     1.8646900000    -0.6013820000
    6      S       0.0429650000     0.3620900000    -1.4756820000
    7      C       0.4584650000     2.7185900000     1.8257180000
    8      H       0.3845650000     2.2993900000     2.8478180000
    9      H      -0.3067350000     3.5178900000     1.7373180000
   10      H       1.4509650000     3.2078900000     1.7373180000
   11      C      -0.1207350000    -2.0067100000     0.0111180000
   12      H       0.4191650000    -2.0064100000     0.9465180000
   13      H      -0.8302350000    -2.7105100000     0.4206180000
   14      H       0.6994650000    -2.5256100000    -0.4624820000
   15      H       0.4727650000     2.7993900000    -1.1504820000
 ----------------------------------------------------------------

   10    -629.4220259742      5.24e-07  Convergence criterion met
 Total energy in the final basis set =     -629.4220259742
        RIMP2         total energy =      -630.5999429727 a.u.

                    Orbital Energies (a.u.)
 --------------------------------------------------------------

 Alpha MOs
 -- Occupied --
-91.9766 -11.2793 -11.2549 -11.2471 -11.2308 -11.2272 -11.2169  -8.9765
 -6.6575  -6.6569  -6.6564  -1.1611  -1.0544  -0.9992  -0.9397  -0.8839
 -0.7424  -0.7230  -0.6490  -0.5907  -0.5759  -0.5662  -0.5597  -0.5426
 -0.5095  -0.4856  -0.4679  -0.4439  -0.3370  -0.2993

          Ground-State Mulliken Net Atomic Charges

     Atom                 Charge (a.u.)
  ----------------------------------------
      1 C                     0.061178
      2 C                    -0.269788
      3 C                     0.031824
      4 H                     0.176624
      5 C                    -0.257151
      6 S                    -0.006298
      7 C                    -0.273739
      8 H                     0.101110
      9 H                     0.107264
     10 H                     0.107075
     11 C                    -0.383163
     12 H                     0.130805
     13 H                     0.146691
     14 H                     0.134751
     15 H                     0.192816
  ----------------------------------------
  Sum of atomic charges =     0.000000

                    Cartesian Multipole Moments
 -----------------------------------------------------------------
    Charge (ESU x 10^10)
                -0.0000
    Dipole Moment (Debye)
         X       0.5916      Y      -0.2351      Z       2.0432
       Tot       2.1401
    Quadrupole Moments (Debye-Ang)
        XX     -53.7102     XY       0.7977     YY     -42.4841
        XZ      -0.2800     YZ      -0.9864     ZZ     -48.7891

 Total job time:  162.20s(wall), 155.98s(cpu)
        *  Thank you very much for using Q-Chem.  Have a nice day.  *
