 Q-Chem 5.4, Q-Chem, Inc., Pleasanton, CA (2021)
 Q-Chem 5.4.0 for Intel X86 EM64T Linux

User input:
--------------------------------------------------------------
$molecule
0 1
C	-0.122174	-0.566010	0.017231
C	0.027826	0.284490	1.116631
C	0.268126	1.647390	0.793931
H	-0.036274	-0.078710	2.153331
C	0.306526	1.864690	-0.595269
S	0.041526	0.362090	-1.469569
C	0.457026	2.718590	1.831831
H	0.383126	2.299390	2.853931
H	-0.308174	3.517890	1.743431
H	1.449526	3.207890	1.743431
C	-0.122174	-2.006710	0.017231
H	0.892726	-2.006410	-0.352069
H	0.157926	-2.710510	0.787031
H	-0.446074	-2.525610	-0.872769
H	0.471326	2.799390	-1.144369
$end

$rem
JOBTYPE		SP
EXCHANGE	HF
CORRELATION	pRIMP2
BASIS		cc-pvtz
METHOD		rimp2
AUX_BASIS	rimp2-cc-pvtz
SOLVENT_METHOD	PCM
PURECART	11111
SYMMETRY	false
MEM_TOTAL	110000
SCF_CONVERGENCE = 6
THRESH=10
$end

$solvent
dielectric 4.90
$end
--------------------------------------------------------------

   10    -629.4234167439      7.15e-07  Convergence criterion met
 Total energy in the final basis set =     -629.4234167439
        RIMP2         total energy =      -630.5985387267 a.u.
 Total job time:  157.59s(wall), 156.16s(cpu)
        *  Thank you very much for using Q-Chem.  Have a nice day.  *
 Q-Chem 5.4, Q-Chem, Inc., Pleasanton, CA (2021)
 Q-Chem 5.4.0 for Intel X86 EM64T Linux

User input:
--------------------------------------------------------------
$molecule
0 1
C	-0.122174	-0.566010	0.017231
C	0.027826	0.284490	1.116631
C	0.268126	1.647390	0.793931
H	-0.036274	-0.078710	2.153331
C	0.306526	1.864690	-0.595269
S	0.041526	0.362090	-1.469569
C	0.457026	2.718590	1.831831
H	0.383126	2.299390	2.853931
H	-0.308174	3.517890	1.743431
H	1.449526	3.207890	1.743431
C	-0.122174	-2.006710	0.017231
H	0.892726	-2.006410	-0.352069
H	0.157926	-2.710510	0.787031
H	-0.446074	-2.525610	-0.872769
H	0.471326	2.799390	-1.144369
$end

$rem
JOBTYPE		SP
EXCHANGE	HF
CORRELATION	pRIMP2
BASIS		cc-pvtz
METHOD		rimp2
AUX_BASIS	rimp2-cc-pvtz
SOLVENT_METHOD	PCM
PURECART	11111
SYMMETRY	false
MEM_TOTAL	110000
SCF_CONVERGENCE = 6
THRESH=10
$end

$solvent
dielectric 4.90
$end
--------------------------------------------------------------

             Standard Nuclear Orientation (Angstroms)
    I     Atom           X                Y                Z
 ----------------------------------------------------------------
    1      C      -0.1221740000    -0.5660100000     0.0172310000
    2      C       0.0278260000     0.2844900000     1.1166310000
    3      C       0.2681260000     1.6473900000     0.7939310000
    4      H      -0.0362740000    -0.0787100000     2.1533310000
    5      C       0.3065260000     1.8646900000    -0.5952690000
    6      S       0.0415260000     0.3620900000    -1.4695690000
    7      C       0.4570260000     2.7185900000     1.8318310000
    8      H       0.3831260000     2.2993900000     2.8539310000
    9      H      -0.3081740000     3.5178900000     1.7434310000
   10      H       1.4495260000     3.2078900000     1.7434310000
   11      C      -0.1221740000    -2.0067100000     0.0172310000
   12      H       0.8927260000    -2.0064100000    -0.3520690000
   13      H       0.1579260000    -2.7105100000     0.7870310000
   14      H      -0.4460740000    -2.5256100000    -0.8727690000
   15      H       0.4713260000     2.7993900000    -1.1443690000
 ----------------------------------------------------------------

   10    -629.4234167439      7.15e-07  Convergence criterion met
 Total energy in the final basis set =     -629.4234167439
        RIMP2         total energy =      -630.5985387267 a.u.

                    Orbital Energies (a.u.)
 --------------------------------------------------------------

 Alpha MOs
 -- Occupied --
-91.9783 -11.2844 -11.2504 -11.2468 -11.2264 -11.2233 -11.2220  -8.9783
 -6.6593  -6.6588  -6.6581  -1.1609  -1.0566  -0.9962  -0.9435  -0.8819
 -0.7450  -0.7183  -0.6495  -0.5873  -0.5768  -0.5656  -0.5526  -0.5476
 -0.5071  -0.4940  -0.4661  -0.4559  -0.3394  -0.2898

          Ground-State Mulliken Net Atomic Charges

     Atom                 Charge (a.u.)
  ----------------------------------------
      1 C                     0.065328
      2 C                    -0.320540
      3 C                     0.058576
      4 H                     0.177789
      5 C                    -0.278860
      6 S                    -0.001456
      7 C                    -0.273041
      8 H                     0.101374
      9 H                     0.107353
     10 H                     0.107293
     11 C                    -0.376651
     12 H                     0.140570
     13 H                     0.163275
     14 H                     0.135607
     15 H                     0.193384
  ----------------------------------------
  Sum of atomic charges =     0.000000

                    Cartesian Multipole Moments
 -----------------------------------------------------------------
    Charge (ESU x 10^10)
                -0.0000
    Dipole Moment (Debye)
         X       0.8791      Y      -0.6569      Z       1.1682
       Tot       1.6029
    Quadrupole Moments (Debye-Ang)
        XX     -54.2317     XY       0.0691     YY     -41.9731
        XZ       0.2972     YZ       0.6736     ZZ     -48.6525

 Total job time:  156.79s(wall), 155.40s(cpu)
        *  Thank you very much for using Q-Chem.  Have a nice day.  *
