 Q-Chem 5.4, Q-Chem, Inc., Pleasanton, CA (2021)
 Q-Chem 5.4.0 for Intel X86 EM64T Linux

User input:
--------------------------------------------------------------
$molecule
0 1
C	-0.236098	-0.535395	0.017710
C	0.059302	0.276105	1.117110
C	0.532602	1.576505	0.794410
H	-0.066798	-0.070395	2.153810
C	0.608102	1.783905	-0.594790
S	0.086202	0.350205	-1.469090
C	0.904702	2.598705	1.832310
H	0.759102	2.198705	2.854410
H	0.289902	3.518705	1.743910
H	1.967102	2.908305	1.743910
C	-0.236098	-1.976095	0.017710
H	0.591302	-1.976295	-0.676390
H	-0.762598	-2.679895	-0.609890
H	0.372702	-2.494995	0.743210
H	0.932802	2.675905	-1.143890
$end

$rem
JOBTYPE		SP
EXCHANGE	HF
CORRELATION	pRIMP2
BASIS		cc-pvtz
METHOD		rimp2
AUX_BASIS	rimp2-cc-pvtz
SOLVENT_METHOD	PCM
PURECART	11111
SYMMETRY	false
MEM_TOTAL	110000
SCF_CONVERGENCE = 6
THRESH=10
$end

$solvent
dielectric 4.90
$end
--------------------------------------------------------------

   10    -629.4166220136      6.54e-07  Convergence criterion met
 Total energy in the final basis set =     -629.4166220136
        RIMP2         total energy =      -630.5940718227 a.u.
 Total job time:  159.19s(wall), 157.35s(cpu)
        *  Thank you very much for using Q-Chem.  Have a nice day.  *
 Q-Chem 5.4, Q-Chem, Inc., Pleasanton, CA (2021)
 Q-Chem 5.4.0 for Intel X86 EM64T Linux

User input:
--------------------------------------------------------------
$molecule
0 1
C	-0.236098	-0.535395	0.017710
C	0.059302	0.276105	1.117110
C	0.532602	1.576505	0.794410
H	-0.066798	-0.070395	2.153810
C	0.608102	1.783905	-0.594790
S	0.086202	0.350205	-1.469090
C	0.904702	2.598705	1.832310
H	0.759102	2.198705	2.854410
H	0.289902	3.518705	1.743910
H	1.967102	2.908305	1.743910
C	-0.236098	-1.976095	0.017710
H	0.591302	-1.976295	-0.676390
H	-0.762598	-2.679895	-0.609890
H	0.372702	-2.494995	0.743210
H	0.932802	2.675905	-1.143890
$end

$rem
JOBTYPE		SP
EXCHANGE	HF
CORRELATION	pRIMP2
BASIS		cc-pvtz
METHOD		rimp2
AUX_BASIS	rimp2-cc-pvtz
SOLVENT_METHOD	PCM
PURECART	11111
SYMMETRY	false
MEM_TOTAL	110000
SCF_CONVERGENCE = 6
THRESH=10
$end

$solvent
dielectric 4.90
$end
--------------------------------------------------------------

             Standard Nuclear Orientation (Angstroms)
    I     Atom           X                Y                Z
 ----------------------------------------------------------------
    1      C      -0.2360980000    -0.5353950000     0.0177100000
    2      C       0.0593020000     0.2761050000     1.1171100000
    3      C       0.5326020000     1.5765050000     0.7944100000
    4      H      -0.0667980000    -0.0703950000     2.1538100000
    5      C       0.6081020000     1.7839050000    -0.5947900000
    6      S       0.0862020000     0.3502050000    -1.4690900000
    7      C       0.9047020000     2.5987050000     1.8323100000
    8      H       0.7591020000     2.1987050000     2.8544100000
    9      H       0.2899020000     3.5187050000     1.7439100000
   10      H       1.9671020000     2.9083050000     1.7439100000
   11      C      -0.2360980000    -1.9760950000     0.0177100000
   12      H       0.5913020000    -1.9762950000    -0.6763900000
   13      H      -0.7625980000    -2.6798950000    -0.6098900000
   14      H       0.3727020000    -2.4949950000     0.7432100000
   15      H       0.9328020000     2.6759050000    -1.1438900000
 ----------------------------------------------------------------

   10    -629.4166220136      6.54e-07  Convergence criterion met
 Total energy in the final basis set =     -629.4166220136
        RIMP2         total energy =      -630.5940718227 a.u.

                    Orbital Energies (a.u.)
 --------------------------------------------------------------

 Alpha MOs
 -- Occupied --
-91.9761 -11.2797 -11.2550 -11.2470 -11.2288 -11.2269 -11.2186  -8.9764
 -6.6574  -6.6568  -6.6562  -1.1624  -1.0562  -0.9956  -0.9439  -0.8814
 -0.7468  -0.7194  -0.6470  -0.5906  -0.5777  -0.5662  -0.5506  -0.5480
 -0.5081  -0.4914  -0.4638  -0.4507  -0.3395  -0.2938

          Ground-State Mulliken Net Atomic Charges

     Atom                 Charge (a.u.)
  ----------------------------------------
      1 C                     0.058129
      2 C                    -0.311783
      3 C                     0.057938
      4 H                     0.179873
      5 C                    -0.264434
      6 S                    -0.005268
      7 C                    -0.271285
      8 H                     0.101487
      9 H                     0.107601
     10 H                     0.106930
     11 C                    -0.374226
     12 H                     0.134272
     13 H                     0.149814
     14 H                     0.137873
     15 H                     0.193079
  ----------------------------------------
  Sum of atomic charges =     0.000000

                    Cartesian Multipole Moments
 -----------------------------------------------------------------
    Charge (ESU x 10^10)
                -0.0000
    Dipole Moment (Debye)
         X       1.0142      Y      -0.3689      Z       1.0714
       Tot       1.5207
    Quadrupole Moments (Debye-Ang)
        XX     -53.4055     XY       1.8062     YY     -43.1224
        XZ       0.4508     YZ       1.2640     ZZ     -48.6557

 Total job time:  156.79s(wall), 155.90s(cpu)
        *  Thank you very much for using Q-Chem.  Have a nice day.  *
