 Q-Chem 5.4, Q-Chem, Inc., Pleasanton, CA (2021)
 Q-Chem 5.4.0 for Intel X86 EM64T Linux

User input:
--------------------------------------------------------------
$molecule
0 1
C	-0.516295	-0.333972	0.018592
C	0.145305	0.221128	1.117992
C	1.205405	1.110628	0.795292
H	-0.137195	-0.015972	2.154692
C	1.374505	1.252428	-0.593908
S	0.205605	0.271728	-1.468208
C	2.038705	1.809828	1.833192
H	1.712605	1.536228	2.855292
H	1.966305	2.914028	1.744792
H	3.113505	1.546728	1.744792
C	-0.516295	-1.774672	0.018592
H	-1.343595	-1.774872	-0.675708
H	-1.042895	-2.478472	0.646092
H	0.092505	-2.293572	-0.707008
H	2.101605	1.862628	-1.143008
$end

$rem
JOBTYPE		SP
EXCHANGE	HF
CORRELATION	pRIMP2
BASIS		cc-pvtz
METHOD		rimp2
AUX_BASIS	rimp2-cc-pvtz
SOLVENT_METHOD	PCM
PURECART	11111
SYMMETRY	false
MEM_TOTAL	110000
SCF_CONVERGENCE = 6
THRESH=10
$end

$solvent
dielectric 4.90
$end
--------------------------------------------------------------

             Standard Nuclear Orientation (Angstroms)
    I     Atom           X                Y                Z
 ----------------------------------------------------------------
    1      C      -0.5162950000    -0.3339720000     0.0185920000
    2      C       0.1453050000     0.2211280000     1.1179920000
    3      C       1.2054050000     1.1106280000     0.7952920000
    4      H      -0.1371950000    -0.0159720000     2.1546920000
    5      C       1.3745050000     1.2524280000    -0.5939080000
    6      S       0.2056050000     0.2717280000    -1.4682080000
    7      C       2.0387050000     1.8098280000     1.8331920000
    8      H       1.7126050000     1.5362280000     2.8552920000
    9      H       1.9663050000     2.9140280000     1.7447920000
   10      H       3.1135050000     1.5467280000     1.7447920000
   11      C      -0.5162950000    -1.7746720000     0.0185920000
   12      H      -1.3435950000    -1.7748720000    -0.6757080000
   13      H      -1.0428950000    -2.4784720000     0.6460920000
   14      H       0.0925050000    -2.2935720000    -0.7070080000
   15      H       2.1016050000     1.8626280000    -1.1430080000
 ----------------------------------------------------------------

   11    -629.3653448663      4.13e-07  Convergence criterion met
 Total energy in the final basis set =     -629.3653448663
        RIMP2         total energy =      -630.5533231360 a.u.

                    Orbital Energies (a.u.)
 --------------------------------------------------------------

 Alpha MOs
 -- Occupied --
-91.9768 -11.2735 -11.2533 -11.2480 -11.2420 -11.2278 -11.2082  -8.9773
 -6.6582  -6.6575  -6.6571  -1.1680  -1.0547  -0.9952  -0.9434  -0.8806
 -0.7506  -0.7249  -0.6426  -0.5904  -0.5760  -0.5686  -0.5520  -0.5449
 -0.5157  -0.4798  -0.4564  -0.4388  -0.3362  -0.2929

          Ground-State Mulliken Net Atomic Charges

     Atom                 Charge (a.u.)
  ----------------------------------------
      1 C                    -0.076048
      2 C                    -0.157169
      3 C                     0.003993
      4 H                     0.182142
      5 C                    -0.206747
      6 S                     0.005806
      7 C                    -0.269718
      8 H                     0.101673
      9 H                     0.106727
     10 H                     0.104654
     11 C                    -0.383740
     12 H                     0.115292
     13 H                     0.143028
     14 H                     0.133124
     15 H                     0.196983
  ----------------------------------------
  Sum of atomic charges =     0.000000

                    Cartesian Multipole Moments
 -----------------------------------------------------------------
    Charge (ESU x 10^10)
                -0.0000
    Dipole Moment (Debye)
         X       1.3989      Y       0.1849      Z       1.2964
       Tot       1.9162
    Quadrupole Moments (Debye-Ang)
        XX     -49.0032     XY       5.5829     YY     -48.2205
        XZ      -0.4279     YZ       0.4676     ZZ     -48.0550

 Total job time:  170.56s(wall), 169.49s(cpu)
        *  Thank you very much for using Q-Chem.  Have a nice day.  *
