 Q-Chem 5.4, Q-Chem, Inc., Pleasanton, CA (2021)
 Q-Chem 5.4.0 for Intel X86 EM64T Linux

User input:
--------------------------------------------------------------
$molecule
0 1
C	-0.338900	-0.485421	0.010154
C	0.092900	0.262479	1.109554
C	0.784900	1.460979	0.786854
H	-0.091500	-0.056921	2.146254
C	0.895200	1.652079	-0.602346
S	0.132300	0.330679	-1.476646
C	1.328800	2.402979	1.824754
H	1.116000	2.034379	2.846854
H	0.883100	3.415779	1.736354
H	2.428800	2.523379	1.736354
C	-0.338900	-1.926121	0.010154
H	-0.526600	-1.925821	1.073754
H	-1.145600	-2.629921	-0.132146
H	0.593800	-2.445021	0.174654
H	1.369900	2.474079	-1.151446
$end

$rem
JOBTYPE		SP
EXCHANGE	HF
CORRELATION	pRIMP2
BASIS		cc-pvtz
METHOD		rimp2
AUX_BASIS	rimp2-cc-pvtz
SOLVENT_METHOD	PCM
PURECART	11111
SYMMETRY	false
MEM_TOTAL	110000
SCF_CONVERGENCE = 6
THRESH=10
$end

$solvent
dielectric 4.90
$end
--------------------------------------------------------------

   10    -629.4081583629      5.12e-07  Convergence criterion met
 Total energy in the final basis set =     -629.4081583629
        RIMP2         total energy =      -630.5899283175 a.u.
 Total job time:  160.64s(wall), 156.58s(cpu)
        *  Thank you very much for using Q-Chem.  Have a nice day.  *
 Q-Chem 5.4, Q-Chem, Inc., Pleasanton, CA (2021)
 Q-Chem 5.4.0 for Intel X86 EM64T Linux

User input:
--------------------------------------------------------------
$molecule
0 1
C	-0.338900	-0.485421	0.010154
C	0.092900	0.262479	1.109554
C	0.784900	1.460979	0.786854
H	-0.091500	-0.056921	2.146254
C	0.895200	1.652079	-0.602346
S	0.132300	0.330679	-1.476646
C	1.328800	2.402979	1.824754
H	1.116000	2.034379	2.846854
H	0.883100	3.415779	1.736354
H	2.428800	2.523379	1.736354
C	-0.338900	-1.926121	0.010154
H	-0.526600	-1.925821	1.073754
H	-1.145600	-2.629921	-0.132146
H	0.593800	-2.445021	0.174654
H	1.369900	2.474079	-1.151446
$end

$rem
JOBTYPE		SP
EXCHANGE	HF
CORRELATION	pRIMP2
BASIS		cc-pvtz
METHOD		rimp2
AUX_BASIS	rimp2-cc-pvtz
SOLVENT_METHOD	PCM
PURECART	11111
SYMMETRY	false
MEM_TOTAL	110000
SCF_CONVERGENCE = 6
THRESH=10
$end

$solvent
dielectric 4.90
$end
--------------------------------------------------------------

             Standard Nuclear Orientation (Angstroms)
    I     Atom           X                Y                Z
 ----------------------------------------------------------------
    1      C      -0.3389000000    -0.4854210000     0.0101540000
    2      C       0.0929000000     0.2624790000     1.1095540000
    3      C       0.7849000000     1.4609790000     0.7868540000
    4      H      -0.0915000000    -0.0569210000     2.1462540000
    5      C       0.8952000000     1.6520790000    -0.6023460000
    6      S       0.1323000000     0.3306790000    -1.4766460000
    7      C       1.3288000000     2.4029790000     1.8247540000
    8      H       1.1160000000     2.0343790000     2.8468540000
    9      H       0.8831000000     3.4157790000     1.7363540000
   10      H       2.4288000000     2.5233790000     1.7363540000
   11      C      -0.3389000000    -1.9261210000     0.0101540000
   12      H      -0.5266000000    -1.9258210000     1.0737540000
   13      H      -1.1456000000    -2.6299210000    -0.1321460000
   14      H       0.5938000000    -2.4450210000     0.1746540000
   15      H       1.3699000000     2.4740790000    -1.1514460000
 ----------------------------------------------------------------

   10    -629.4081583629      5.12e-07  Convergence criterion met
 Total energy in the final basis set =     -629.4081583629
        RIMP2         total energy =      -630.5899283175 a.u.

                    Orbital Energies (a.u.)
 --------------------------------------------------------------

 Alpha MOs
 -- Occupied --
-91.9735 -11.2704 -11.2629 -11.2476 -11.2386 -11.2279 -11.2141  -8.9739
 -6.6548  -6.6541  -6.6537  -1.1637  -1.0540  -0.9996  -0.9380  -0.8842
 -0.7431  -0.7262  -0.6463  -0.5918  -0.5793  -0.5664  -0.5582  -0.5420
 -0.5128  -0.4809  -0.4664  -0.4334  -0.3375  -0.3042

          Ground-State Mulliken Net Atomic Charges

     Atom                 Charge (a.u.)
  ----------------------------------------
      1 C                     0.018196
      2 C                    -0.256940
      3 C                     0.038185
      4 H                     0.176808
      5 C                    -0.241488
      6 S                    -0.003939
      7 C                    -0.269979
      8 H                     0.101314
      9 H                     0.106988
     10 H                     0.106727
     11 C                    -0.359335
     12 H                     0.114200
     13 H                     0.142290
     14 H                     0.133375
     15 H                     0.193598
  ----------------------------------------
  Sum of atomic charges =     0.000000

                    Cartesian Multipole Moments
 -----------------------------------------------------------------
    Charge (ESU x 10^10)
                -0.0000
    Dipole Moment (Debye)
         X       0.8069      Y       0.0705      Z       2.1936
       Tot       2.3384
    Quadrupole Moments (Debye-Ang)
        XX     -51.6074     XY       4.2229     YY     -44.7267
        XZ      -0.0337     YZ      -1.0563     ZZ     -48.8109

 Total job time:  157.47s(wall), 156.59s(cpu)
        *  Thank you very much for using Q-Chem.  Have a nice day.  *
