 Q-Chem 5.4, Q-Chem, Inc., Pleasanton, CA (2021)
 Q-Chem 5.4.0 for Intel X86 EM64T Linux

User input:
--------------------------------------------------------------
$molecule
0 1
C	-0.180252	-0.553191	0.016439
C	0.043248	0.281009	1.115839
C	0.401448	1.617709	0.793139
H	-0.052152	-0.075291	2.152539
C	0.458648	1.830809	-0.596061
S	0.063648	0.357109	-1.470361
C	0.683048	2.668409	1.831039
H	0.572848	2.257309	2.853139
H	-0.009552	3.531409	1.742639
H	1.714348	3.069409	1.742639
C	-0.180252	-1.993891	0.016439
H	0.883348	-1.993591	-0.170961
H	-0.038052	-2.697691	0.823239
H	-0.344752	-2.512791	-0.916261
H	0.704348	2.747709	-1.145161
$end

$rem
JOBTYPE		SP
EXCHANGE	HF
CORRELATION	pRIMP2
BASIS		cc-pvtz
METHOD		rimp2
AUX_BASIS	rimp2-cc-pvtz
SOLVENT_METHOD	PCM
PURECART	11111
SYMMETRY	false
MEM_TOTAL	110000
SCF_CONVERGENCE = 6
THRESH=10
$end

$solvent
dielectric 4.90
$end
--------------------------------------------------------------

             Standard Nuclear Orientation (Angstroms)
    I     Atom           X                Y                Z
 ----------------------------------------------------------------
    1      C      -0.1802520000    -0.5531910000     0.0164390000
    2      C       0.0432480000     0.2810090000     1.1158390000
    3      C       0.4014480000     1.6177090000     0.7931390000
    4      H      -0.0521520000    -0.0752910000     2.1525390000
    5      C       0.4586480000     1.8308090000    -0.5960610000
    6      S       0.0636480000     0.3571090000    -1.4703610000
    7      C       0.6830480000     2.6684090000     1.8310390000
    8      H       0.5728480000     2.2573090000     2.8531390000
    9      H      -0.0095520000     3.5314090000     1.7426390000
   10      H       1.7143480000     3.0694090000     1.7426390000
   11      C      -0.1802520000    -1.9938910000     0.0164390000
   12      H       0.8833480000    -1.9935910000    -0.1709610000
   13      H      -0.0380520000    -2.6976910000     0.8232390000
   14      H      -0.3447520000    -2.5127910000    -0.9162610000
   15      H       0.7043480000     2.7477090000    -1.1451610000
 ----------------------------------------------------------------

   10    -629.4218359470      7.22e-07  Convergence criterion met
 Total energy in the final basis set =     -629.4218359470
        RIMP2         total energy =      -630.5973321032 a.u.

                    Orbital Energies (a.u.)
 --------------------------------------------------------------

 Alpha MOs
 -- Occupied --
-91.9784 -11.2849 -11.2500 -11.2471 -11.2264 -11.2227 -11.2226  -8.9783
 -6.6594  -6.6588  -6.6582  -1.1614  -1.0567  -0.9965  -0.9426  -0.8819
 -0.7447  -0.7187  -0.6495  -0.5865  -0.5774  -0.5657  -0.5530  -0.5472
 -0.5067  -0.4948  -0.4660  -0.4569  -0.3393  -0.2885

          Ground-State Mulliken Net Atomic Charges

     Atom                 Charge (a.u.)
  ----------------------------------------
      1 C                     0.064555
      2 C                    -0.325870
      3 C                     0.062167
      4 H                     0.175821
      5 C                    -0.282596
      6 S                     0.000960
      7 C                    -0.272632
      8 H                     0.101454
      9 H                     0.107399
     10 H                     0.107215
     11 C                    -0.375497
     12 H                     0.146240
     13 H                     0.163079
     14 H                     0.134685
     15 H                     0.193021
  ----------------------------------------
  Sum of atomic charges =     0.000000

                    Cartesian Multipole Moments
 -----------------------------------------------------------------
    Charge (ESU x 10^10)
                -0.0000
    Dipole Moment (Debye)
         X       1.0104      Y      -0.7159      Z       1.2832
       Tot       1.7833
    Quadrupole Moments (Debye-Ang)
        XX     -54.0767     XY       0.7521     YY     -42.3250
        XZ       0.2425     YZ       0.4013     ZZ     -48.6118

 Total job time:  156.31s(wall), 155.29s(cpu)
        *  Thank you very much for using Q-Chem.  Have a nice day.  *
