 Q-Chem 5.4, Q-Chem, Inc., Pleasanton, CA (2021)
 Q-Chem 5.4.0 for Intel X86 EM64T Linux

User input:
--------------------------------------------------------------
$molecule
0 1
C	-0.335617	-0.485419	0.011685
C	0.096183	0.262481	1.111085
C	0.788183	1.460981	0.788385
H	-0.088217	-0.056919	2.147785
C	0.898483	1.652081	-0.600815
S	0.135583	0.330681	-1.475115
C	1.332083	2.402981	1.826285
H	1.119283	2.034381	2.848385
H	0.886383	3.415781	1.737885
H	2.432083	2.523381	1.737885
C	-0.335617	-1.926119	0.011685
H	-1.029917	-1.926319	0.838985
H	0.291883	-2.629919	0.538285
H	-1.061217	-2.445019	-0.597115
H	1.373183	2.474081	-1.149915
$end

$rem
JOBTYPE		SP
EXCHANGE	HF
CORRELATION	pRIMP2
BASIS		cc-pvtz
METHOD		rimp2
AUX_BASIS	rimp2-cc-pvtz
SOLVENT_METHOD	PCM
PURECART	11111
SYMMETRY	false
MEM_TOTAL	110000
SCF_CONVERGENCE = 6
THRESH=10
$end

$solvent
dielectric 4.90
$end
--------------------------------------------------------------

             Standard Nuclear Orientation (Angstroms)
    I     Atom           X                Y                Z
 ----------------------------------------------------------------
    1      C      -0.3356170000    -0.4854190000     0.0116850000
    2      C       0.0961830000     0.2624810000     1.1110850000
    3      C       0.7881830000     1.4609810000     0.7883850000
    4      H      -0.0882170000    -0.0569190000     2.1477850000
    5      C       0.8984830000     1.6520810000    -0.6008150000
    6      S       0.1355830000     0.3306810000    -1.4751150000
    7      C       1.3320830000     2.4029810000     1.8262850000
    8      H       1.1192830000     2.0343810000     2.8483850000
    9      H       0.8863830000     3.4157810000     1.7378850000
   10      H       2.4320830000     2.5233810000     1.7378850000
   11      C      -0.3356170000    -1.9261190000     0.0116850000
   12      H      -1.0299170000    -1.9263190000     0.8389850000
   13      H       0.2918830000    -2.6299190000     0.5382850000
   14      H      -1.0612170000    -2.4450190000    -0.5971150000
   15      H       1.3731830000     2.4740810000    -1.1499150000
 ----------------------------------------------------------------

   10    -629.4050984852      5.41e-07  Convergence criterion met
 Total energy in the final basis set =     -629.4050984852
        RIMP2         total energy =      -630.5872146231 a.u.

                    Orbital Energies (a.u.)
 --------------------------------------------------------------

 Alpha MOs
 -- Occupied --
-91.9741 -11.2702 -11.2613 -11.2478 -11.2365 -11.2276 -11.2142  -8.9744
 -6.6553  -6.6546  -6.6542  -1.1626  -1.0537  -0.9985  -0.9397  -0.8840
 -0.7435  -0.7242  -0.6477  -0.5862  -0.5780  -0.5656  -0.5585  -0.5427
 -0.5135  -0.4867  -0.4627  -0.4377  -0.3375  -0.2975

          Ground-State Mulliken Net Atomic Charges

     Atom                 Charge (a.u.)
  ----------------------------------------
      1 C                     0.012257
      2 C                    -0.259303
      3 C                     0.033463
      4 H                     0.178580
      5 C                    -0.241693
      6 S                    -0.001172
      7 C                    -0.271295
      8 H                     0.101337
      9 H                     0.106896
     10 H                     0.106702
     11 C                    -0.369404
     12 H                     0.123569
     13 H                     0.155618
     14 H                     0.131448
     15 H                     0.192997
  ----------------------------------------
  Sum of atomic charges =     0.000000

                    Cartesian Multipole Moments
 -----------------------------------------------------------------
    Charge (ESU x 10^10)
                -0.0000
    Dipole Moment (Debye)
         X       0.4312      Y      -0.0219      Z       2.0576
       Tot       2.1024
    Quadrupole Moments (Debye-Ang)
        XX     -51.6447     XY       4.7330     YY     -44.6718
        XZ       0.2327     YZ      -0.9006     ZZ     -48.6175

 Total job time:  158.08s(wall), 155.16s(cpu)
        *  Thank you very much for using Q-Chem.  Have a nice day.  *
