 Q-Chem 5.4, Q-Chem, Inc., Pleasanton, CA (2021)
 Q-Chem 5.4.0 for Intel X86 EM64T Linux

User input:
--------------------------------------------------------------
$molecule
0 1
C	-0.584546	-0.237127	0.011118
C	0.163354	0.194673	1.110518
C	1.361854	0.886573	0.787818
H	-0.156046	0.010273	2.147218
C	1.552954	0.996873	-0.601382
S	0.231654	0.234073	-1.475682
C	2.303954	1.430473	1.825718
H	1.935254	1.217573	2.847818
H	2.424354	2.530373	1.737318
H	3.316754	0.984673	1.737318
C	-0.584546	-1.677827	0.011118
H	-1.124646	-1.678027	0.946318
H	0.124854	-2.381627	0.420718
H	-1.404746	-2.196727	-0.462482
H	2.375054	1.471473	-1.150482
$end

$rem
JOBTYPE		SP
EXCHANGE	HF
CORRELATION	pRIMP2
BASIS		cc-pvtz
METHOD		rimp2
AUX_BASIS	rimp2-cc-pvtz
SOLVENT_METHOD	PCM
PURECART	11111
SYMMETRY	false
MEM_TOTAL	110000
SCF_CONVERGENCE = 6
THRESH=10
$end

$solvent
dielectric 4.90
$end
--------------------------------------------------------------

             Standard Nuclear Orientation (Angstroms)
    I     Atom           X                Y                Z
 ----------------------------------------------------------------
    1      C      -0.5845460000    -0.2371270000     0.0111180000
    2      C       0.1633540000     0.1946730000     1.1105180000
    3      C       1.3618540000     0.8865730000     0.7878180000
    4      H      -0.1560460000     0.0102730000     2.1472180000
    5      C       1.5529540000     0.9968730000    -0.6013820000
    6      S       0.2316540000     0.2340730000    -1.4756820000
    7      C       2.3039540000     1.4304730000     1.8257180000
    8      H       1.9352540000     1.2175730000     2.8478180000
    9      H       2.4243540000     2.5303730000     1.7373180000
   10      H       3.3167540000     0.9846730000     1.7373180000
   11      C      -0.5845460000    -1.6778270000     0.0111180000
   12      H      -1.1246460000    -1.6780270000     0.9463180000
   13      H       0.1248540000    -2.3816270000     0.4207180000
   14      H      -1.4047460000    -2.1967270000    -0.4624820000
   15      H       2.3750540000     1.4714730000    -1.1504820000
 ----------------------------------------------------------------

   10    -629.3513243330      9.87e-07  Convergence criterion met
 Total energy in the final basis set =     -629.3513243330
        RIMP2         total energy =      -630.5420133678 a.u.

                    Orbital Energies (a.u.)
 --------------------------------------------------------------

 Alpha MOs
 -- Occupied --
-91.9712 -11.2845 -11.2561 -11.2500 -11.2411 -11.2296 -11.2076  -8.9724
 -6.6532  -6.6522  -6.6521  -1.1737  -1.0557  -1.0011  -0.9353  -0.8837
 -0.7486  -0.7338  -0.6451  -0.5871  -0.5847  -0.5683  -0.5530  -0.5430
 -0.5209  -0.4781  -0.4595  -0.4142  -0.3359  -0.3033

          Ground-State Mulliken Net Atomic Charges

     Atom                 Charge (a.u.)
  ----------------------------------------
      1 C                    -0.109408
      2 C                    -0.115910
      3 C                    -0.025649
      4 H                     0.184751
      5 C                    -0.176112
      6 S                     0.010388
      7 C                    -0.267202
      8 H                     0.102059
      9 H                     0.106906
     10 H                     0.105062
     11 C                    -0.368553
     12 H                     0.101459
     13 H                     0.140121
     14 H                     0.114483
     15 H                     0.197604
  ----------------------------------------
  Sum of atomic charges =     0.000000

                    Cartesian Multipole Moments
 -----------------------------------------------------------------
    Charge (ESU x 10^10)
                -0.0000
    Dipole Moment (Debye)
         X       2.2834      Y       0.3019      Z       2.2499
       Tot       3.2198
    Quadrupole Moments (Debye-Ang)
        XX     -47.5325     XY       4.7282     YY     -50.1002
        XZ      -0.2575     YZ      -0.8037     ZZ     -48.0258

 Total job time:  163.29s(wall), 161.68s(cpu)
        *  Thank you very much for using Q-Chem.  Have a nice day.  *
