 Q-Chem 5.4, Q-Chem, Inc., Pleasanton, CA (2021)
 Q-Chem 5.4.0 for Intel X86 EM64T Linux

User input:
--------------------------------------------------------------
$molecule
0 1
C	-0.229088	-0.535395	0.011118
C	0.066312	0.276105	1.110518
C	0.539612	1.576505	0.787818
H	-0.059788	-0.070395	2.147218
C	0.615112	1.783905	-0.601382
S	0.093212	0.350205	-1.475682
C	0.911712	2.598705	1.825718
H	0.766112	2.198705	2.847818
H	0.296912	3.518705	1.737318
H	1.974112	2.908305	1.737318
C	-0.229088	-1.976095	0.011118
H	-0.769188	-1.976295	0.946318
H	0.480312	-2.679895	0.420718
H	-1.049288	-2.494995	-0.462482
H	0.939812	2.675905	-1.150482
$end

$rem
JOBTYPE		SP
EXCHANGE	HF
CORRELATION	pRIMP2
BASIS		cc-pvtz
METHOD		rimp2
AUX_BASIS	rimp2-cc-pvtz
SOLVENT_METHOD	PCM
PURECART	11111
SYMMETRY	false
MEM_TOTAL	110000
SCF_CONVERGENCE = 6
THRESH=10
$end

$solvent
dielectric 4.90
$end
--------------------------------------------------------------

   10    -629.4163236827      5.16e-07  Convergence criterion met
 Total energy in the final basis set =     -629.4163236827
        RIMP2         total energy =      -630.5960473163 a.u.
 Total job time:  157.69s(wall), 155.60s(cpu)
        *  Thank you very much for using Q-Chem.  Have a nice day.  *
 Q-Chem 5.4, Q-Chem, Inc., Pleasanton, CA (2021)
 Q-Chem 5.4.0 for Intel X86 EM64T Linux

User input:
--------------------------------------------------------------
$molecule
0 1
C	-0.229088	-0.535395	0.011118
C	0.066312	0.276105	1.110518
C	0.539612	1.576505	0.787818
H	-0.059788	-0.070395	2.147218
C	0.615112	1.783905	-0.601382
S	0.093212	0.350205	-1.475682
C	0.911712	2.598705	1.825718
H	0.766112	2.198705	2.847818
H	0.296912	3.518705	1.737318
H	1.974112	2.908305	1.737318
C	-0.229088	-1.976095	0.011118
H	-0.769188	-1.976295	0.946318
H	0.480312	-2.679895	0.420718
H	-1.049288	-2.494995	-0.462482
H	0.939812	2.675905	-1.150482
$end

$rem
JOBTYPE		SP
EXCHANGE	HF
CORRELATION	pRIMP2
BASIS		cc-pvtz
METHOD		rimp2
AUX_BASIS	rimp2-cc-pvtz
SOLVENT_METHOD	PCM
PURECART	11111
SYMMETRY	false
MEM_TOTAL	110000
SCF_CONVERGENCE = 6
THRESH=10
$end

$solvent
dielectric 4.90
$end
--------------------------------------------------------------

             Standard Nuclear Orientation (Angstroms)
    I     Atom           X                Y                Z
 ----------------------------------------------------------------
    1      C      -0.2290880000    -0.5353950000     0.0111180000
    2      C       0.0663120000     0.2761050000     1.1105180000
    3      C       0.5396120000     1.5765050000     0.7878180000
    4      H      -0.0597880000    -0.0703950000     2.1472180000
    5      C       0.6151120000     1.7839050000    -0.6013820000
    6      S       0.0932120000     0.3502050000    -1.4756820000
    7      C       0.9117120000     2.5987050000     1.8257180000
    8      H       0.7661120000     2.1987050000     2.8478180000
    9      H       0.2969120000     3.5187050000     1.7373180000
   10      H       1.9741120000     2.9083050000     1.7373180000
   11      C      -0.2290880000    -1.9760950000     0.0111180000
   12      H      -0.7691880000    -1.9762950000     0.9463180000
   13      H       0.4803120000    -2.6798950000     0.4207180000
   14      H      -1.0492880000    -2.4949950000    -0.4624820000
   15      H       0.9398120000     2.6759050000    -1.1504820000
 ----------------------------------------------------------------

   10    -629.4163236827      5.16e-07  Convergence criterion met
 Total energy in the final basis set =     -629.4163236827
        RIMP2         total energy =      -630.5960473163 a.u.

                    Orbital Energies (a.u.)
 --------------------------------------------------------------

 Alpha MOs
 -- Occupied --
-91.9747 -11.2745 -11.2588 -11.2474 -11.2347 -11.2275 -11.2156  -8.9749
 -6.6559  -6.6553  -6.6548  -1.1616  -1.0538  -0.9990  -0.9399  -0.8843
 -0.7429  -0.7238  -0.6487  -0.5882  -0.5775  -0.5660  -0.5593  -0.5425
 -0.5120  -0.4860  -0.4652  -0.4390  -0.3378  -0.3004

          Ground-State Mulliken Net Atomic Charges

     Atom                 Charge (a.u.)
  ----------------------------------------
      1 C                     0.035557
      2 C                    -0.271465
      3 C                     0.037467
      4 H                     0.178554
      5 C                    -0.250449
      6 S                    -0.004235
      7 C                    -0.272387
      8 H                     0.101278
      9 H                     0.106934
     10 H                     0.107112
     11 C                    -0.364571
     12 H                     0.121286
     13 H                     0.148429
     14 H                     0.133345
     15 H                     0.193143
  ----------------------------------------
  Sum of atomic charges =     0.000000

                    Cartesian Multipole Moments
 -----------------------------------------------------------------
    Charge (ESU x 10^10)
                -0.0000
    Dipole Moment (Debye)
         X       0.2012      Y      -0.0616      Z       2.0875
       Tot       2.0981
    Quadrupole Moments (Debye-Ang)
        XX     -52.7422     XY       3.5281     YY     -43.3127
        XZ       0.2232     YZ      -1.0079     ZZ     -48.7783

 Total job time:  158.37s(wall), 156.21s(cpu)
        *  Thank you very much for using Q-Chem.  Have a nice day.  *
