 Q-Chem 5.4, Q-Chem, Inc., Pleasanton, CA (2021)
 Q-Chem 5.4.0 for Intel X86 EM64T Linux

User input:
--------------------------------------------------------------
$molecule
0 1
C	-0.056467	-0.573729	0.010946
C	0.018833	0.286571	1.110346
C	0.139433	1.665271	0.787646
H	-0.013267	-0.080829	2.147046
C	0.158733	1.885071	-0.601554
S	0.025733	0.365071	-1.475854
C	0.234333	2.748871	1.825546
H	0.197233	2.324771	2.847646
H	-0.597667	3.478371	1.737146
H	1.180333	3.322871	1.737146
C	-0.056467	-2.014429	0.010946
H	-0.750767	-2.014129	0.838246
H	-0.683967	-2.718229	-0.515654
H	0.669133	-2.533329	0.619746
H	0.241433	2.830671	-1.150654
$end

$rem
JOBTYPE		SP
EXCHANGE	HF
CORRELATION	pRIMP2
BASIS		cc-pvtz
METHOD		rimp2
AUX_BASIS	rimp2-cc-pvtz
SOLVENT_METHOD	PCM
PURECART	11111
SYMMETRY	false
MEM_TOTAL	110000
SCF_CONVERGENCE = 6
THRESH=10
$end

$solvent
dielectric 4.90
$end
--------------------------------------------------------------

             Standard Nuclear Orientation (Angstroms)
    I     Atom           X                Y                Z
 ----------------------------------------------------------------
    1      C      -0.0564670000    -0.5737290000     0.0109460000
    2      C       0.0188330000     0.2865710000     1.1103460000
    3      C       0.1394330000     1.6652710000     0.7876460000
    4      H      -0.0132670000    -0.0808290000     2.1470460000
    5      C       0.1587330000     1.8850710000    -0.6015540000
    6      S       0.0257330000     0.3650710000    -1.4758540000
    7      C       0.2343330000     2.7488710000     1.8255460000
    8      H       0.1972330000     2.3247710000     2.8476460000
    9      H      -0.5976670000     3.4783710000     1.7371460000
   10      H       1.1803330000     3.3228710000     1.7371460000
   11      C      -0.0564670000    -2.0144290000     0.0109460000
   12      H      -0.7507670000    -2.0141290000     0.8382460000
   13      H      -0.6839670000    -2.7182290000    -0.5156540000
   14      H       0.6691330000    -2.5333290000     0.6197460000
   15      H       0.2414330000     2.8306710000    -1.1506540000
 ----------------------------------------------------------------

   10    -629.4236159974      5.63e-07  Convergence criterion met
 Total energy in the final basis set =     -629.4236159974
        RIMP2         total energy =      -630.6011210813 a.u.

                    Orbital Energies (a.u.)
 --------------------------------------------------------------

 Alpha MOs
 -- Occupied --
-91.9761 -11.2814 -11.2528 -11.2473 -11.2295 -11.2271 -11.2183  -8.9760
 -6.6570  -6.6564  -6.6559  -1.1604  -1.0547  -0.9990  -0.9399  -0.8840
 -0.7422  -0.7216  -0.6482  -0.5916  -0.5755  -0.5679  -0.5588  -0.5430
 -0.5095  -0.4884  -0.4661  -0.4451  -0.3373  -0.2964

          Ground-State Mulliken Net Atomic Charges

     Atom                 Charge (a.u.)
  ----------------------------------------
      1 C                     0.068503
      2 C                    -0.282858
      3 C                     0.038258
      4 H                     0.177117
      5 C                    -0.265129
      6 S                    -0.005310
      7 C                    -0.274803
      8 H                     0.101093
      9 H                     0.107151
     10 H                     0.107416
     11 C                    -0.385069
     12 H                     0.130842
     13 H                     0.158778
     14 H                     0.131871
     15 H                     0.192140
  ----------------------------------------
  Sum of atomic charges =     0.000000

                    Cartesian Multipole Moments
 -----------------------------------------------------------------
    Charge (ESU x 10^10)
                -0.0000
    Dipole Moment (Debye)
         X      -0.3278      Y      -0.3930      Z       1.9950
       Tot       2.0596
    Quadrupole Moments (Debye-Ang)
        XX     -53.8446     XY       1.8858     YY     -42.1128
        XZ       0.3077     YZ      -0.6819     ZZ     -48.7938

 Total job time:  161.41s(wall), 159.64s(cpu)
        *  Thank you very much for using Q-Chem.  Have a nice day.  *
