 Q-Chem 5.4, Q-Chem, Inc., Pleasanton, CA (2021)
 Q-Chem 5.4.0 for Intel X86 EM64T Linux

User input:
--------------------------------------------------------------
$molecule
0 1
C	-0.437448	-0.417597	0.010354
C	0.117652	0.243903	1.109754
C	1.007252	1.304103	0.787054
H	-0.119348	-0.038597	2.146454
C	1.149152	1.473103	-0.602146
S	0.168352	0.304303	-1.476446
C	1.706452	2.137303	1.824954
H	1.432852	1.811303	2.847054
H	1.443452	3.212103	1.736554
H	2.810652	2.064903	1.736554
C	-0.437448	-1.858297	0.010354
H	-0.250048	-1.857997	1.073954
H	-1.244248	-2.562097	0.152554
H	0.495252	-2.377197	-0.154146
H	1.759252	2.200203	-1.151246
$end

$rem
JOBTYPE		SP
EXCHANGE	HF
CORRELATION	pRIMP2
BASIS		cc-pvtz
METHOD		rimp2
AUX_BASIS	rimp2-cc-pvtz
SOLVENT_METHOD	PCM
PURECART	11111
SYMMETRY	false
MEM_TOTAL	110000
SCF_CONVERGENCE = 6
THRESH=10
$end

$solvent
dielectric 4.90
$end
--------------------------------------------------------------

             Standard Nuclear Orientation (Angstroms)
    I     Atom           X                Y                Z
 ----------------------------------------------------------------
    1      C      -0.4374480000    -0.4175970000     0.0103540000
    2      C       0.1176520000     0.2439030000     1.1097540000
    3      C       1.0072520000     1.3041030000     0.7870540000
    4      H      -0.1193480000    -0.0385970000     2.1464540000
    5      C       1.1491520000     1.4731030000    -0.6021460000
    6      S       0.1683520000     0.3043030000    -1.4764460000
    7      C       1.7064520000     2.1373030000     1.8249540000
    8      H       1.4328520000     1.8113030000     2.8470540000
    9      H       1.4434520000     3.2121030000     1.7365540000
   10      H       2.8106520000     2.0649030000     1.7365540000
   11      C      -0.4374480000    -1.8582970000     0.0103540000
   12      H      -0.2500480000    -1.8579970000     1.0739540000
   13      H      -1.2442480000    -2.5620970000     0.1525540000
   14      H       0.4952520000    -2.3771970000    -0.1541460000
   15      H       1.7592520000     2.2002030000    -1.1512460000
 ----------------------------------------------------------------

   10    -629.3906253428      5.08e-07  Convergence criterion met
 Total energy in the final basis set =     -629.3906253428
        RIMP2         total energy =      -630.5756438220 a.u.

                    Orbital Energies (a.u.)
 --------------------------------------------------------------

 Alpha MOs
 -- Occupied --
-91.9743 -11.2670 -11.2649 -11.2477 -11.2410 -11.2282 -11.2110  -8.9747
 -6.6555  -6.6549  -6.6545  -1.1667  -1.0546  -0.9999  -0.9363  -0.8834
 -0.7441  -0.7287  -0.6449  -0.5919  -0.5801  -0.5673  -0.5564  -0.5422
 -0.5144  -0.4716  -0.4684  -0.4354  -0.3346  -0.3037

          Ground-State Mulliken Net Atomic Charges

     Atom                 Charge (a.u.)
  ----------------------------------------
      1 C                    -0.010855
      2 C                    -0.222025
      3 C                     0.023099
      4 H                     0.176247
      5 C                    -0.228978
      6 S                     0.001089
      7 C                    -0.269357
      8 H                     0.101283
      9 H                     0.107072
     10 H                     0.105957
     11 C                    -0.361861
     12 H                     0.120013
     13 H                     0.130597
     14 H                     0.133662
     15 H                     0.194057
  ----------------------------------------
  Sum of atomic charges =     0.000000

                    Cartesian Multipole Moments
 -----------------------------------------------------------------
    Charge (ESU x 10^10)
                -0.0000
    Dipole Moment (Debye)
         X       1.4353      Y       0.1390      Z       2.2075
       Tot       2.6367
    Quadrupole Moments (Debye-Ang)
        XX     -50.5389     XY       4.2488     YY     -46.5817
        XZ      -0.3713     YZ      -1.0866     ZZ     -48.5600

 Total job time:  159.44s(wall), 157.68s(cpu)
        *  Thank you very much for using Q-Chem.  Have a nice day.  *
