 Q-Chem 5.4, Q-Chem, Inc., Pleasanton, CA (2021)
 Q-Chem 5.4.0 for Intel X86 EM64T Linux

User input:
--------------------------------------------------------------
$molecule
0 1
C	-0.244952	-0.536106	0.014458
C	0.050448	0.275394	1.113858
C	0.523748	1.575794	0.791158
H	-0.075652	-0.071106	2.150558
C	0.599248	1.783194	-0.598042
S	0.077348	0.349494	-1.472342
C	0.895848	2.597994	1.829058
H	0.750248	2.197994	2.851158
H	0.281048	3.517994	1.740658
H	1.958248	2.907594	1.740658
C	0.005248	-1.954906	0.014458
H	-1.058452	-2.142106	0.014358
H	0.127448	-2.648006	-0.804742
H	0.095348	-2.466006	0.961558
H	0.923948	2.675194	-1.147142
$end

$rem
JOBTYPE		SP
EXCHANGE	HF
CORRELATION	pRIMP2
BASIS		cc-pvtz
METHOD		rimp2
AUX_BASIS	rimp2-cc-pvtz
SOLVENT_METHOD	PCM
PURECART	11111
SYMMETRY	false
MEM_TOTAL	110000
SCF_CONVERGENCE = 6
THRESH=10
$end

$solvent
dielectric 4.90
$end
--------------------------------------------------------------

             Standard Nuclear Orientation (Angstroms)
    I     Atom           X                Y                Z
 ----------------------------------------------------------------
    1      C      -0.2449520000    -0.5361060000     0.0144580000
    2      C       0.0504480000     0.2753940000     1.1138580000
    3      C       0.5237480000     1.5757940000     0.7911580000
    4      H      -0.0756520000    -0.0711060000     2.1505580000
    5      C       0.5992480000     1.7831940000    -0.5980420000
    6      S       0.0773480000     0.3494940000    -1.4723420000
    7      C       0.8958480000     2.5979940000     1.8290580000
    8      H       0.7502480000     2.1979940000     2.8511580000
    9      H       0.2810480000     3.5179940000     1.7406580000
   10      H       1.9582480000     2.9075940000     1.7406580000
   11      C       0.0052480000    -1.9549060000     0.0144580000
   12      H      -1.0584520000    -2.1421060000     0.0143580000
   13      H       0.1274480000    -2.6480060000    -0.8047420000
   14      H       0.0953480000    -2.4660060000     0.9615580000
   15      H       0.9239480000     2.6751940000    -1.1471420000
 ----------------------------------------------------------------

   10    -629.3996436136      5.66e-07  Convergence criterion met
 Total energy in the final basis set =     -629.3996436136
        RIMP2         total energy =      -630.5812094105 a.u.

                    Orbital Energies (a.u.)
 --------------------------------------------------------------

 Alpha MOs
 -- Occupied --
-91.9759 -11.2760 -11.2551 -11.2473 -11.2295 -11.2268 -11.2158  -8.9760
 -6.6570  -6.6564  -6.6558  -1.1617  -1.0546  -0.9968  -0.9414  -0.8827
 -0.7445  -0.7207  -0.6447  -0.5868  -0.5748  -0.5709  -0.5522  -0.5446
 -0.5116  -0.4936  -0.4574  -0.4496  -0.3374  -0.2864

          Ground-State Mulliken Net Atomic Charges

     Atom                 Charge (a.u.)
  ----------------------------------------
      1 C                     0.022875
      2 C                    -0.278678
      3 C                     0.048296
      4 H                     0.178479
      5 C                    -0.264914
      6 S                     0.002146
      7 C                    -0.270270
      8 H                     0.101405
      9 H                     0.107103
     10 H                     0.106446
     11 C                    -0.378986
     12 H                     0.132576
     13 H                     0.162398
     14 H                     0.138431
     15 H                     0.192695
  ----------------------------------------
  Sum of atomic charges =     0.000000

                    Cartesian Multipole Moments
 -----------------------------------------------------------------
    Charge (ESU x 10^10)
                -0.0000
    Dipole Moment (Debye)
         X       0.0766      Y      -0.4358      Z       1.4973
       Tot       1.5613
    Quadrupole Moments (Debye-Ang)
        XX     -53.5519     XY       3.7036     YY     -42.8657
        XZ       0.0343     YZ       0.3926     ZZ     -48.3614

 Total job time:  159.86s(wall), 155.98s(cpu)
        *  Thank you very much for using Q-Chem.  Have a nice day.  *
