 Q-Chem 5.4, Q-Chem, Inc., Pleasanton, CA (2021)
 Q-Chem 5.4.0 for Intel X86 EM64T Linux

User input:
--------------------------------------------------------------
$molecule
0 1
C	-0.121899	-0.566007	0.017710
C	0.028101	0.284493	1.117110
C	0.268401	1.647393	0.794410
H	-0.035999	-0.078707	2.153810
C	0.306801	1.864693	-0.594790
S	0.041801	0.362093	-1.469090
C	0.457301	2.718593	1.832310
H	0.383401	2.299393	2.854410
H	-0.307899	3.517893	1.743910
H	1.449801	3.207893	1.743910
C	-0.121899	-2.006707	0.017710
H	0.705501	-2.006907	-0.676390
H	-0.648399	-2.710507	-0.609890
H	0.486901	-2.525607	0.743210
H	0.471601	2.799393	-1.143890
$end

$rem
JOBTYPE		SP
EXCHANGE	HF
CORRELATION	pRIMP2
BASIS		cc-pvtz
METHOD		rimp2
AUX_BASIS	rimp2-cc-pvtz
SOLVENT_METHOD	PCM
PURECART	11111
SYMMETRY	false
MEM_TOTAL	110000
SCF_CONVERGENCE = 6
THRESH=10
$end

$solvent
dielectric 4.90
$end
--------------------------------------------------------------

   10    -629.4224230610      6.48e-07  Convergence criterion met
 Total energy in the final basis set =     -629.4224230610
        RIMP2         total energy =      -630.5986166557 a.u.
 Total job time:  157.54s(wall), 155.48s(cpu)
        *  Thank you very much for using Q-Chem.  Have a nice day.  *
 Q-Chem 5.4, Q-Chem, Inc., Pleasanton, CA (2021)
 Q-Chem 5.4.0 for Intel X86 EM64T Linux

User input:
--------------------------------------------------------------
$molecule
0 1
C	-0.121899	-0.566007	0.017710
C	0.028101	0.284493	1.117110
C	0.268401	1.647393	0.794410
H	-0.035999	-0.078707	2.153810
C	0.306801	1.864693	-0.594790
S	0.041801	0.362093	-1.469090
C	0.457301	2.718593	1.832310
H	0.383401	2.299393	2.854410
H	-0.307899	3.517893	1.743910
H	1.449801	3.207893	1.743910
C	-0.121899	-2.006707	0.017710
H	0.705501	-2.006907	-0.676390
H	-0.648399	-2.710507	-0.609890
H	0.486901	-2.525607	0.743210
H	0.471601	2.799393	-1.143890
$end

$rem
JOBTYPE		SP
EXCHANGE	HF
CORRELATION	pRIMP2
BASIS		cc-pvtz
METHOD		rimp2
AUX_BASIS	rimp2-cc-pvtz
SOLVENT_METHOD	PCM
PURECART	11111
SYMMETRY	false
MEM_TOTAL	110000
SCF_CONVERGENCE = 6
THRESH=10
$end

$solvent
dielectric 4.90
$end
--------------------------------------------------------------

             Standard Nuclear Orientation (Angstroms)
    I     Atom           X                Y                Z
 ----------------------------------------------------------------
    1      C      -0.1218990000    -0.5660070000     0.0177100000
    2      C       0.0281010000     0.2844930000     1.1171100000
    3      C       0.2684010000     1.6473930000     0.7944100000
    4      H      -0.0359990000    -0.0787070000     2.1538100000
    5      C       0.3068010000     1.8646930000    -0.5947900000
    6      S       0.0418010000     0.3620930000    -1.4690900000
    7      C       0.4573010000     2.7185930000     1.8323100000
    8      H       0.3834010000     2.2993930000     2.8544100000
    9      H      -0.3078990000     3.5178930000     1.7439100000
   10      H       1.4498010000     3.2078930000     1.7439100000
   11      C      -0.1218990000    -2.0067070000     0.0177100000
   12      H       0.7055010000    -2.0069070000    -0.6763900000
   13      H      -0.6483990000    -2.7105070000    -0.6098900000
   14      H       0.4869010000    -2.5256070000     0.7432100000
   15      H       0.4716010000     2.7993930000    -1.1438900000
 ----------------------------------------------------------------

   10    -629.4224230610      6.48e-07  Convergence criterion met
 Total energy in the final basis set =     -629.4224230610
        RIMP2         total energy =      -630.5986166557 a.u.

                    Orbital Energies (a.u.)
 --------------------------------------------------------------

 Alpha MOs
 -- Occupied --
-91.9772 -11.2813 -11.2534 -11.2469 -11.2271 -11.2267 -11.2194  -8.9774
 -6.6584  -6.6578  -6.6572  -1.1611  -1.0560  -0.9960  -0.9443  -0.8818
 -0.7462  -0.7187  -0.6476  -0.5909  -0.5766  -0.5670  -0.5507  -0.5478
 -0.5078  -0.4912  -0.4649  -0.4519  -0.3393  -0.2942

          Ground-State Mulliken Net Atomic Charges

     Atom                 Charge (a.u.)
  ----------------------------------------
      1 C                     0.061375
      2 C                    -0.301350
      3 C                     0.051623
      4 H                     0.180657
      5 C                    -0.267251
      6 S                    -0.005466
      7 C                    -0.272595
      8 H                     0.101379
      9 H                     0.107415
     10 H                     0.107144
     11 C                    -0.374299
     12 H                     0.129647
     13 H                     0.151314
     14 H                     0.136924
     15 H                     0.193483
  ----------------------------------------
  Sum of atomic charges =     0.000000

                    Cartesian Multipole Moments
 -----------------------------------------------------------------
    Charge (ESU x 10^10)
                -0.0000
    Dipole Moment (Debye)
         X       0.7676      Y      -0.4067      Z       1.0355
       Tot       1.3516
    Quadrupole Moments (Debye-Ang)
        XX     -54.0011     XY       0.4360     YY     -42.1873
        XZ       0.3959     YZ       1.3005     ZZ     -48.7018

 Total job time:  156.32s(wall), 155.17s(cpu)
        *  Thank you very much for using Q-Chem.  Have a nice day.  *
