 Q-Chem 5.4, Q-Chem, Inc., Pleasanton, CA (2021)
 Q-Chem 5.4.0 for Intel X86 EM64T Linux

User input:
--------------------------------------------------------------
$molecule
0 1
C	-0.234690	-0.535397	0.019118
C	0.060710	0.276103	1.118518
C	0.534010	1.576503	0.795818
H	-0.065390	-0.070397	2.155218
C	0.609510	1.783903	-0.593382
S	0.087610	0.350203	-1.467682
C	0.906110	2.598703	1.833718
H	0.760510	2.198703	2.855818
H	0.291310	3.518703	1.745318
H	1.968510	2.908303	1.745318
C	-0.234690	-1.976097	0.019118
H	0.459610	-1.975797	-0.808182
H	0.392810	-2.679897	0.545718
H	-0.960290	-2.494997	-0.589682
H	0.934210	2.675903	-1.142482
$end

$rem
JOBTYPE		SP
EXCHANGE	HF
CORRELATION	pRIMP2
BASIS		cc-pvtz
METHOD		rimp2
AUX_BASIS	rimp2-cc-pvtz
SOLVENT_METHOD	PCM
PURECART	11111
SYMMETRY	false
MEM_TOTAL	110000
SCF_CONVERGENCE = 6
THRESH=10
$end

$solvent
dielectric 4.90
$end
--------------------------------------------------------------

   10    -629.4137599977      6.42e-07  Convergence criterion met
 Total energy in the final basis set =     -629.4137599977
        RIMP2         total energy =      -630.5918569043 a.u.
 Total job time:  158.49s(wall), 156.04s(cpu)
        *  Thank you very much for using Q-Chem.  Have a nice day.  *
 Q-Chem 5.4, Q-Chem, Inc., Pleasanton, CA (2021)
 Q-Chem 5.4.0 for Intel X86 EM64T Linux

User input:
--------------------------------------------------------------
$molecule
0 1
C	-0.234690	-0.535397	0.019118
C	0.060710	0.276103	1.118518
C	0.534010	1.576503	0.795818
H	-0.065390	-0.070397	2.155218
C	0.609510	1.783903	-0.593382
S	0.087610	0.350203	-1.467682
C	0.906110	2.598703	1.833718
H	0.760510	2.198703	2.855818
H	0.291310	3.518703	1.745318
H	1.968510	2.908303	1.745318
C	-0.234690	-1.976097	0.019118
H	0.459610	-1.975797	-0.808182
H	0.392810	-2.679897	0.545718
H	-0.960290	-2.494997	-0.589682
H	0.934210	2.675903	-1.142482
$end

$rem
JOBTYPE		SP
EXCHANGE	HF
CORRELATION	pRIMP2
BASIS		cc-pvtz
METHOD		rimp2
AUX_BASIS	rimp2-cc-pvtz
SOLVENT_METHOD	PCM
PURECART	11111
SYMMETRY	false
MEM_TOTAL	110000
SCF_CONVERGENCE = 6
THRESH=10
$end

$solvent
dielectric 4.90
$end
--------------------------------------------------------------

             Standard Nuclear Orientation (Angstroms)
    I     Atom           X                Y                Z
 ----------------------------------------------------------------
    1      C      -0.2346900000    -0.5353970000     0.0191180000
    2      C       0.0607100000     0.2761030000     1.1185180000
    3      C       0.5340100000     1.5765030000     0.7958180000
    4      H      -0.0653900000    -0.0703970000     2.1552180000
    5      C       0.6095100000     1.7839030000    -0.5933820000
    6      S       0.0876100000     0.3502030000    -1.4676820000
    7      C       0.9061100000     2.5987030000     1.8337180000
    8      H       0.7605100000     2.1987030000     2.8558180000
    9      H       0.2913100000     3.5187030000     1.7453180000
   10      H       1.9685100000     2.9083030000     1.7453180000
   11      C      -0.2346900000    -1.9760970000     0.0191180000
   12      H       0.4596100000    -1.9757970000    -0.8081820000
   13      H       0.3928100000    -2.6798970000     0.5457180000
   14      H      -0.9602900000    -2.4949970000    -0.5896820000
   15      H       0.9342100000     2.6759030000    -1.1424820000
 ----------------------------------------------------------------

   10    -629.4137599977      6.42e-07  Convergence criterion met
 Total energy in the final basis set =     -629.4137599977
        RIMP2         total energy =      -630.5918569043 a.u.

                    Orbital Energies (a.u.)
 --------------------------------------------------------------

 Alpha MOs
 -- Occupied --
-91.9772 -11.2768 -11.2569 -11.2469 -11.2294 -11.2268 -11.2167  -8.9775
 -6.6585  -6.6579  -6.6573  -1.1623  -1.0559  -0.9950  -0.9451  -0.8811
 -0.7473  -0.7192  -0.6484  -0.5886  -0.5773  -0.5649  -0.5530  -0.5476
 -0.5100  -0.4872  -0.4639  -0.4490  -0.3394  -0.2961

          Ground-State Mulliken Net Atomic Charges

     Atom                 Charge (a.u.)
  ----------------------------------------
      1 C                     0.050040
      2 C                    -0.299862
      3 C                     0.054178
      4 H                     0.179837
      5 C                    -0.259927
      6 S                    -0.004642
      7 C                    -0.271785
      8 H                     0.101636
      9 H                     0.107460
     10 H                     0.106776
     11 C                    -0.372721
     12 H                     0.129060
     13 H                     0.157312
     14 H                     0.128531
     15 H                     0.194106
  ----------------------------------------
  Sum of atomic charges =     0.000000

                    Cartesian Multipole Moments
 -----------------------------------------------------------------
    Charge (ESU x 10^10)
                -0.0000
    Dipole Moment (Debye)
         X       0.9434      Y      -0.2071      Z       0.9832
       Tot       1.3783
    Quadrupole Moments (Debye-Ang)
        XX     -53.2282     XY       1.8181     YY     -43.2207
        XZ       0.4319     YZ       1.1923     ZZ     -48.6824

 Total job time:  156.43s(wall), 155.60s(cpu)
        *  Thank you very much for using Q-Chem.  Have a nice day.  *
