 Q-Chem 5.4, Q-Chem, Inc., Pleasanton, CA (2021)
 Q-Chem 5.4.0 for Intel X86 EM64T Linux

User input:
--------------------------------------------------------------
$molecule
0 1
C	-0.057217	-0.573727	0.019522
C	0.018083	0.286573	1.118922
C	0.138683	1.665273	0.796222
H	-0.014017	-0.080827	2.155622
C	0.157983	1.885073	-0.592978
S	0.024983	0.365073	-1.467278
C	0.233583	2.748873	1.834122
H	0.196483	2.324773	2.856222
H	-0.598417	3.478373	1.745722
H	1.179583	3.322873	1.745722
C	-0.057217	-2.014427	0.019522
H	-0.597117	-2.014627	-0.915878
H	-0.766717	-2.718227	0.429022
H	0.762983	-2.533327	-0.454078
H	0.240683	2.830673	-1.142078
$end

$rem
JOBTYPE		SP
EXCHANGE	HF
CORRELATION	pRIMP2
BASIS		cc-pvtz
METHOD		rimp2
AUX_BASIS	rimp2-cc-pvtz
SOLVENT_METHOD	PCM
PURECART	11111
SYMMETRY	false
MEM_TOTAL	110000
SCF_CONVERGENCE = 6
THRESH=10
$end

$solvent
dielectric 4.90
$end
--------------------------------------------------------------

             Standard Nuclear Orientation (Angstroms)
    I     Atom           X                Y                Z
 ----------------------------------------------------------------
    1      C      -0.0572170000    -0.5737270000     0.0195220000
    2      C       0.0180830000     0.2865730000     1.1189220000
    3      C       0.1386830000     1.6652730000     0.7962220000
    4      H      -0.0140170000    -0.0808270000     2.1556220000
    5      C       0.1579830000     1.8850730000    -0.5929780000
    6      S       0.0249830000     0.3650730000    -1.4672780000
    7      C       0.2335830000     2.7488730000     1.8341220000
    8      H       0.1964830000     2.3247730000     2.8562220000
    9      H      -0.5984170000     3.4783730000     1.7457220000
   10      H       1.1795830000     3.3228730000     1.7457220000
   11      C      -0.0572170000    -2.0144270000     0.0195220000
   12      H      -0.5971170000    -2.0146270000    -0.9158780000
   13      H      -0.7667170000    -2.7182270000     0.4290220000
   14      H       0.7629830000    -2.5333270000    -0.4540780000
   15      H       0.2406830000     2.8306730000    -1.1420780000
 ----------------------------------------------------------------

   10    -629.4210784080      5.77e-07  Convergence criterion met
 Total energy in the final basis set =     -629.4210784080
        RIMP2         total energy =      -630.5981479285 a.u.

                    Orbital Energies (a.u.)
 --------------------------------------------------------------

 Alpha MOs
 -- Occupied --
-91.9801 -11.2773 -11.2561 -11.2469 -11.2276 -11.2267 -11.2171  -8.9799
 -6.6609  -6.6604  -6.6597  -1.1607  -1.0553  -0.9955  -0.9459  -0.8817
 -0.7471  -0.7184  -0.6484  -0.5910  -0.5751  -0.5655  -0.5537  -0.5473
 -0.5086  -0.4873  -0.4650  -0.4482  -0.3389  -0.2995

          Ground-State Mulliken Net Atomic Charges

     Atom                 Charge (a.u.)
  ----------------------------------------
      1 C                     0.050036
      2 C                    -0.268117
      3 C                     0.038087
      4 H                     0.180447
      5 C                    -0.258590
      6 S                    -0.003162
      7 C                    -0.273588
      8 H                     0.101694
      9 H                     0.106922
     10 H                     0.107080
     11 C                    -0.372255
     12 H                     0.116282
     13 H                     0.155020
     14 H                     0.125350
     15 H                     0.194796
  ----------------------------------------
  Sum of atomic charges =     0.000000

                    Cartesian Multipole Moments
 -----------------------------------------------------------------
    Charge (ESU x 10^10)
                -0.0000
    Dipole Moment (Debye)
         X      -0.1917      Y      -0.1284      Z       0.8981
       Tot       0.9272
    Quadrupole Moments (Debye-Ang)
        XX     -53.7706     XY       1.6202     YY     -42.1020
        XZ      -0.2310     YZ       1.3046     ZZ     -48.7937

 Total job time:  157.89s(wall), 156.98s(cpu)
        *  Thank you very much for using Q-Chem.  Have a nice day.  *
