 Q-Chem 5.4, Q-Chem, Inc., Pleasanton, CA (2021)
 Q-Chem 5.4.0 for Intel X86 EM64T Linux

User input:
--------------------------------------------------------------
$molecule
0 1
C	-0.344055	-0.485419	0.015308
C	0.087745	0.262481	1.114708
C	0.779745	1.460981	0.792008
H	-0.096655	-0.056919	2.151408
C	0.890045	1.652081	-0.597192
S	0.127145	0.330681	-1.471492
C	1.323645	2.402981	1.829908
H	1.110845	2.034381	2.852008
H	0.877945	3.415781	1.741508
H	2.423645	2.523381	1.741508
C	-0.344055	-1.926119	0.015308
H	0.719545	-1.926319	-0.172092
H	-0.486255	-2.629919	-0.791492
H	-0.179555	-2.445019	0.948008
H	1.364745	2.474081	-1.146292
$end

$rem
JOBTYPE		SP
EXCHANGE	HF
CORRELATION	pRIMP2
BASIS		cc-pvtz
METHOD		rimp2
AUX_BASIS	rimp2-cc-pvtz
SOLVENT_METHOD	PCM
PURECART	11111
SYMMETRY	false
MEM_TOTAL	110000
SCF_CONVERGENCE = 6
THRESH=10
$end

$solvent
dielectric 4.90
$end
--------------------------------------------------------------

   10    -629.4097013020      6.70e-07  Convergence criterion met
 Total energy in the final basis set =     -629.4097013020
        RIMP2         total energy =      -630.5885823034 a.u.
 Total job time:  158.66s(wall), 157.75s(cpu)
        *  Thank you very much for using Q-Chem.  Have a nice day.  *
 Q-Chem 5.4, Q-Chem, Inc., Pleasanton, CA (2021)
 Q-Chem 5.4.0 for Intel X86 EM64T Linux

User input:
--------------------------------------------------------------
$molecule
0 1
C	-0.344055	-0.485419	0.015308
C	0.087745	0.262481	1.114708
C	0.779745	1.460981	0.792008
H	-0.096655	-0.056919	2.151408
C	0.890045	1.652081	-0.597192
S	0.127145	0.330681	-1.471492
C	1.323645	2.402981	1.829908
H	1.110845	2.034381	2.852008
H	0.877945	3.415781	1.741508
H	2.423645	2.523381	1.741508
C	-0.344055	-1.926119	0.015308
H	0.719545	-1.926319	-0.172092
H	-0.486255	-2.629919	-0.791492
H	-0.179555	-2.445019	0.948008
H	1.364745	2.474081	-1.146292
$end

$rem
JOBTYPE		SP
EXCHANGE	HF
CORRELATION	pRIMP2
BASIS		cc-pvtz
METHOD		rimp2
AUX_BASIS	rimp2-cc-pvtz
SOLVENT_METHOD	PCM
PURECART	11111
SYMMETRY	false
MEM_TOTAL	110000
SCF_CONVERGENCE = 6
THRESH=10
$end

$solvent
dielectric 4.90
$end
--------------------------------------------------------------

             Standard Nuclear Orientation (Angstroms)
    I     Atom           X                Y                Z
 ----------------------------------------------------------------
    1      C      -0.3440550000    -0.4854190000     0.0153080000
    2      C       0.0877450000     0.2624810000     1.1147080000
    3      C       0.7797450000     1.4609810000     0.7920080000
    4      H      -0.0966550000    -0.0569190000     2.1514080000
    5      C       0.8900450000     1.6520810000    -0.5971920000
    6      S       0.1271450000     0.3306810000    -1.4714920000
    7      C       1.3236450000     2.4029810000     1.8299080000
    8      H       1.1108450000     2.0343810000     2.8520080000
    9      H       0.8779450000     3.4157810000     1.7415080000
   10      H       2.4236450000     2.5233810000     1.7415080000
   11      C      -0.3440550000    -1.9261190000     0.0153080000
   12      H       0.7195450000    -1.9263190000    -0.1720920000
   13      H      -0.4862550000    -2.6299190000    -0.7914920000
   14      H      -0.1795550000    -2.4450190000     0.9480080000
   15      H       1.3647450000     2.4740810000    -1.1462920000
 ----------------------------------------------------------------

   10    -629.4097013020      6.70e-07  Convergence criterion met
 Total energy in the final basis set =     -629.4097013020
        RIMP2         total energy =      -630.5885823034 a.u.

                    Orbital Energies (a.u.)
 --------------------------------------------------------------

 Alpha MOs
 -- Occupied --
-91.9757 -11.2813 -11.2544 -11.2479 -11.2273 -11.2271 -11.2212  -8.9760
 -6.6570  -6.6564  -6.6558  -1.1644  -1.0569  -0.9965  -0.9409  -0.8817
 -0.7457  -0.7207  -0.6463  -0.5886  -0.5807  -0.5673  -0.5513  -0.5466
 -0.5074  -0.4945  -0.4623  -0.4545  -0.3395  -0.2883

          Ground-State Mulliken Net Atomic Charges

     Atom                 Charge (a.u.)
  ----------------------------------------
      1 C                     0.052643
      2 C                    -0.316081
      3 C                     0.060323
      4 H                     0.176549
      5 C                    -0.271274
      6 S                    -0.004096
      7 C                    -0.270174
      8 H                     0.101632
      9 H                     0.107809
     10 H                     0.106700
     11 C                    -0.370363
     12 H                     0.146948
     13 H                     0.152927
     14 H                     0.133810
     15 H                     0.192646
  ----------------------------------------
  Sum of atomic charges =     0.000000

                    Cartesian Multipole Moments
 -----------------------------------------------------------------
    Charge (ESU x 10^10)
                -0.0000
    Dipole Moment (Debye)
         X       1.3553      Y      -0.5848      Z       1.3869
       Tot       2.0254
    Quadrupole Moments (Debye-Ang)
        XX     -52.8027     XY       2.6269     YY     -44.2486
        XZ       0.2809     YZ       0.5722     ZZ     -48.5430

 Total job time:  158.01s(wall), 156.27s(cpu)
        *  Thank you very much for using Q-Chem.  Have a nice day.  *
