 Q-Chem 5.4, Q-Chem, Inc., Pleasanton, CA (2021)
 Q-Chem 5.4.0 for Intel X86 EM64T Linux

User input:
--------------------------------------------------------------
$molecule
0 1
C	-0.591384	-0.237129	0.017955
C	0.156516	0.194671	1.117355
C	1.355016	0.886571	0.794655
H	-0.162884	0.010271	2.154055
C	1.546116	0.996871	-0.594545
S	0.224816	0.234071	-1.468845
C	2.297116	1.430471	1.832555
H	1.928416	1.217571	2.854655
H	2.417516	2.530371	1.744155
H	3.309916	0.984671	1.744155
C	-0.591384	-1.677829	0.017955
H	0.344016	-1.677529	-0.521945
H	-0.181884	-2.381629	0.727455
H	-1.064984	-2.196729	-0.802245
H	2.368216	1.471471	-1.143645
$end

$rem
JOBTYPE		SP
EXCHANGE	HF
CORRELATION	pRIMP2
BASIS		cc-pvtz
METHOD		rimp2
AUX_BASIS	rimp2-cc-pvtz
SOLVENT_METHOD	PCM
PURECART	11111
SYMMETRY	false
MEM_TOTAL	110000
SCF_CONVERGENCE = 6
THRESH=10
$end

$solvent
dielectric 4.90
$end
--------------------------------------------------------------

             Standard Nuclear Orientation (Angstroms)
    I     Atom           X                Y                Z
 ----------------------------------------------------------------
    1      C      -0.5913840000    -0.2371290000     0.0179550000
    2      C       0.1565160000     0.1946710000     1.1173550000
    3      C       1.3550160000     0.8865710000     0.7946550000
    4      H      -0.1628840000     0.0102710000     2.1540550000
    5      C       1.5461160000     0.9968710000    -0.5945450000
    6      S       0.2248160000     0.2340710000    -1.4688450000
    7      C       2.2971160000     1.4304710000     1.8325550000
    8      H       1.9284160000     1.2175710000     2.8546550000
    9      H       2.4175160000     2.5303710000     1.7441550000
   10      H       3.3099160000     0.9846710000     1.7441550000
   11      C      -0.5913840000    -1.6778290000     0.0179550000
   12      H       0.3440160000    -1.6775290000    -0.5219450000
   13      H      -0.1818840000    -2.3816290000     0.7274550000
   14      H      -1.0649840000    -2.1967290000    -0.8022450000
   15      H       2.3682160000     1.4714710000    -1.1436450000
 ----------------------------------------------------------------

   10    -629.3433277458      7.57e-07  Convergence criterion met
 Total energy in the final basis set =     -629.3433277458
        RIMP2         total energy =      -630.5343520703 a.u.

                    Orbital Energies (a.u.)
 --------------------------------------------------------------

 Alpha MOs
 -- Occupied --
-91.9700 -11.2809 -11.2538 -11.2508 -11.2495 -11.2294 -11.2105  -8.9719
 -6.6527  -6.6519  -6.6516  -1.1787  -1.0602  -0.9966  -0.9417  -0.8783
 -0.7551  -0.7295  -0.6465  -0.5891  -0.5847  -0.5659  -0.5544  -0.5462
 -0.5150  -0.4887  -0.4618  -0.4286  -0.3399  -0.2894

          Ground-State Mulliken Net Atomic Charges

     Atom                 Charge (a.u.)
  ----------------------------------------
      1 C                    -0.072350
      2 C                    -0.152222
      3 C                    -0.012003
      4 H                     0.185925
      5 C                    -0.195022
      6 S                    -0.003863
      7 C                    -0.268221
      8 H                     0.102374
      9 H                     0.107825
     10 H                     0.105588
     11 C                    -0.368842
     12 H                     0.121733
     13 H                     0.143641
     14 H                     0.107547
     15 H                     0.197889
  ----------------------------------------
  Sum of atomic charges =     0.000000

                    Cartesian Multipole Moments
 -----------------------------------------------------------------
    Charge (ESU x 10^10)
                -0.0000
    Dipole Moment (Debye)
         X       2.8252      Y      -0.0812      Z       1.5539
       Tot       3.2254
    Quadrupole Moments (Debye-Ang)
        XX     -48.6854     XY       3.5118     YY     -49.9927
        XZ       0.0628     YZ       0.5614     ZZ     -47.8920

 Total job time:  165.97s(wall), 164.83s(cpu)
        *  Thank you very much for using Q-Chem.  Have a nice day.  *
