 Q-Chem 5.4, Q-Chem, Inc., Pleasanton, CA (2021)
 Q-Chem 5.4.0 for Intel X86 EM64T Linux

User input:
--------------------------------------------------------------
$molecule
0 1
C	-0.440126	-0.417597	0.012353
C	0.114974	0.243903	1.111753
C	1.004574	1.304103	0.789053
H	-0.122026	-0.038597	2.148453
C	1.146474	1.473103	-0.600147
S	0.165674	0.304303	-1.474447
C	1.703774	2.137303	1.826953
H	1.430174	1.811303	2.849053
H	1.440774	3.212103	1.738553
H	2.807974	2.064903	1.738553
C	-0.440126	-1.858297	0.012353
H	0.387174	-1.857997	0.706653
H	-0.966726	-2.562097	0.639853
H	0.168674	-2.377197	-0.713247
H	1.756574	2.200203	-1.149247
$end

$rem
JOBTYPE		SP
EXCHANGE	HF
CORRELATION	pRIMP2
BASIS		cc-pvtz
METHOD		rimp2
AUX_BASIS	rimp2-cc-pvtz
SOLVENT_METHOD	PCM
PURECART	11111
SYMMETRY	false
MEM_TOTAL	110000
SCF_CONVERGENCE = 6
THRESH=10
$end

$solvent
dielectric 4.90
$end
--------------------------------------------------------------

             Standard Nuclear Orientation (Angstroms)
    I     Atom           X                Y                Z
 ----------------------------------------------------------------
    1      C      -0.4401260000    -0.4175970000     0.0123530000
    2      C       0.1149740000     0.2439030000     1.1117530000
    3      C       1.0045740000     1.3041030000     0.7890530000
    4      H      -0.1220260000    -0.0385970000     2.1484530000
    5      C       1.1464740000     1.4731030000    -0.6001470000
    6      S       0.1656740000     0.3043030000    -1.4744470000
    7      C       1.7037740000     2.1373030000     1.8269530000
    8      H       1.4301740000     1.8113030000     2.8490530000
    9      H       1.4407740000     3.2121030000     1.7385530000
   10      H       2.8079740000     2.0649030000     1.7385530000
   11      C      -0.4401260000    -1.8582970000     0.0123530000
   12      H       0.3871740000    -1.8579970000     0.7066530000
   13      H      -0.9667260000    -2.5620970000     0.6398530000
   14      H       0.1686740000    -2.3771970000    -0.7132470000
   15      H       1.7565740000     2.2002030000    -1.1492470000
 ----------------------------------------------------------------

   10    -629.3857524466      6.14e-07  Convergence criterion met
 Total energy in the final basis set =     -629.3857524466
        RIMP2         total energy =      -630.5710652723 a.u.

                    Orbital Energies (a.u.)
 --------------------------------------------------------------

 Alpha MOs
 -- Occupied --
-91.9789 -11.2714 -11.2605 -11.2482 -11.2320 -11.2276 -11.2128  -8.9788
 -6.6597  -6.6591  -6.6586  -1.1670  -1.0556  -0.9986  -0.9369  -0.8820
 -0.7446  -0.7251  -0.6460  -0.5900  -0.5760  -0.5687  -0.5560  -0.5441
 -0.5111  -0.4788  -0.4631  -0.4527  -0.3344  -0.2906

          Ground-State Mulliken Net Atomic Charges

     Atom                 Charge (a.u.)
  ----------------------------------------
      1 C                    -0.010126
      2 C                    -0.221464
      3 C                     0.018723
      4 H                     0.176090
      5 C                    -0.248277
      6 S                     0.012620
      7 C                    -0.269910
      8 H                     0.101506
      9 H                     0.107414
     10 H                     0.105242
     11 C                    -0.385704
     12 H                     0.144032
     13 H                     0.138632
     14 H                     0.137320
     15 H                     0.193904
  ----------------------------------------
  Sum of atomic charges =     0.000000

                    Cartesian Multipole Moments
 -----------------------------------------------------------------
    Charge (ESU x 10^10)
                -0.0000
    Dipole Moment (Debye)
         X       1.6178      Y      -0.2243      Z       1.8840
       Tot       2.4934
    Quadrupole Moments (Debye-Ang)
        XX     -51.3220     XY       3.4371     YY     -46.5482
        XZ      -0.3325     YZ      -0.8098     ZZ     -48.1867

 Total job time:  161.22s(wall), 159.21s(cpu)
        *  Thank you very much for using Q-Chem.  Have a nice day.  *
