 Q-Chem 5.4, Q-Chem, Inc., Pleasanton, CA (2021)
 Q-Chem 5.4.0 for Intel X86 EM64T Linux

User input:
--------------------------------------------------------------
$molecule
0 1
C	-0.116692	-0.566010	0.010277
C	0.033308	0.284490	1.109677
C	0.273608	1.647390	0.786977
H	-0.030792	-0.078710	2.146377
C	0.312008	1.864690	-0.602223
S	0.047008	0.362090	-1.476523
C	0.462508	2.718590	1.824877
H	0.388608	2.299390	2.846977
H	-0.302692	3.517890	1.736477
H	1.455008	3.207890	1.736477
C	-0.116692	-2.006710	0.010277
H	-0.486192	-2.006410	1.025077
H	-0.886492	-2.710510	-0.269923
H	0.773308	-2.525610	0.334177
H	0.476808	2.799390	-1.151323
$end

$rem
JOBTYPE		SP
EXCHANGE	HF
CORRELATION	pRIMP2
BASIS		cc-pvtz
METHOD		rimp2
AUX_BASIS	rimp2-cc-pvtz
SOLVENT_METHOD	PCM
PURECART	11111
SYMMETRY	false
MEM_TOTAL	110000
SCF_CONVERGENCE = 6
THRESH=10
$end

$solvent
dielectric 4.90
$end
--------------------------------------------------------------

   10    -629.4233450232      5.08e-07  Convergence criterion met
 Total energy in the final basis set =     -629.4233450232
        RIMP2         total energy =      -630.6015508769 a.u.
 Total job time:  157.02s(wall), 154.93s(cpu)
        *  Thank you very much for using Q-Chem.  Have a nice day.  *
 Q-Chem 5.4, Q-Chem, Inc., Pleasanton, CA (2021)
 Q-Chem 5.4.0 for Intel X86 EM64T Linux

User input:
--------------------------------------------------------------
$molecule
0 1
C	-0.116692	-0.566010	0.010277
C	0.033308	0.284490	1.109677
C	0.273608	1.647390	0.786977
H	-0.030792	-0.078710	2.146377
C	0.312008	1.864690	-0.602223
S	0.047008	0.362090	-1.476523
C	0.462508	2.718590	1.824877
H	0.388608	2.299390	2.846977
H	-0.302692	3.517890	1.736477
H	1.455008	3.207890	1.736477
C	-0.116692	-2.006710	0.010277
H	-0.486192	-2.006410	1.025077
H	-0.886492	-2.710510	-0.269923
H	0.773308	-2.525610	0.334177
H	0.476808	2.799390	-1.151323
$end

$rem
JOBTYPE		SP
EXCHANGE	HF
CORRELATION	pRIMP2
BASIS		cc-pvtz
METHOD		rimp2
AUX_BASIS	rimp2-cc-pvtz
SOLVENT_METHOD	PCM
PURECART	11111
SYMMETRY	false
MEM_TOTAL	110000
SCF_CONVERGENCE = 6
THRESH=10
$end

$solvent
dielectric 4.90
$end
--------------------------------------------------------------

             Standard Nuclear Orientation (Angstroms)
    I     Atom           X                Y                Z
 ----------------------------------------------------------------
    1      C      -0.1166920000    -0.5660100000     0.0102770000
    2      C       0.0333080000     0.2844900000     1.1096770000
    3      C       0.2736080000     1.6473900000     0.7869770000
    4      H      -0.0307920000    -0.0787100000     2.1463770000
    5      C       0.3120080000     1.8646900000    -0.6022230000
    6      S       0.0470080000     0.3620900000    -1.4765230000
    7      C       0.4625080000     2.7185900000     1.8248770000
    8      H       0.3886080000     2.2993900000     2.8469770000
    9      H      -0.3026920000     3.5178900000     1.7364770000
   10      H       1.4550080000     3.2078900000     1.7364770000
   11      C      -0.1166920000    -2.0067100000     0.0102770000
   12      H      -0.4861920000    -2.0064100000     1.0250770000
   13      H      -0.8864920000    -2.7105100000    -0.2699230000
   14      H       0.7733080000    -2.5256100000     0.3341770000
   15      H       0.4768080000     2.7993900000    -1.1513230000
 ----------------------------------------------------------------

   10    -629.4233450232      5.08e-07  Convergence criterion met
 Total energy in the final basis set =     -629.4233450232
        RIMP2         total energy =      -630.6015508769 a.u.

                    Orbital Energies (a.u.)
 --------------------------------------------------------------

 Alpha MOs
 -- Occupied --
-91.9748 -11.2780 -11.2566 -11.2472 -11.2336 -11.2274 -11.2168  -8.9749
 -6.6558  -6.6553  -6.6547  -1.1610  -1.0541  -0.9995  -0.9396  -0.8844
 -0.7423  -0.7236  -0.6483  -0.5921  -0.5774  -0.5663  -0.5596  -0.5422
 -0.5103  -0.4863  -0.4670  -0.4385  -0.3378  -0.3021

          Ground-State Mulliken Net Atomic Charges

     Atom                 Charge (a.u.)
  ----------------------------------------
      1 C                     0.059329
      2 C                    -0.273997
      3 C                     0.036074
      4 H                     0.177465
      5 C                    -0.255094
      6 S                    -0.006829
      7 C                    -0.273245
      8 H                     0.101095
      9 H                     0.107088
     10 H                     0.107351
     11 C                    -0.373565
     12 H                     0.121221
     13 H                     0.153824
     14 H                     0.126336
     15 H                     0.192946
  ----------------------------------------
  Sum of atomic charges =     0.000000

                    Cartesian Multipole Moments
 -----------------------------------------------------------------
    Charge (ESU x 10^10)
                -0.0000
    Dipole Moment (Debye)
         X       0.0432      Y      -0.1442      Z       2.1242
       Tot       2.1296
    Quadrupole Moments (Debye-Ang)
        XX     -53.4556     XY       2.1584     YY     -42.4159
        XZ       0.1839     YZ      -0.9700     ZZ     -48.9237

 Total job time:  157.43s(wall), 156.01s(cpu)
        *  Thank you very much for using Q-Chem.  Have a nice day.  *
