 Q-Chem 5.4, Q-Chem, Inc., Pleasanton, CA (2021)
 Q-Chem 5.4.0 for Intel X86 EM64T Linux

User input:
--------------------------------------------------------------
$molecule
0 1
C	-0.227926	-0.535397	0.017710
C	0.067474	0.276103	1.117110
C	0.540774	1.576503	0.794410
H	-0.058626	-0.070397	2.153810
C	0.616274	1.783903	-0.594790
S	0.094374	0.350203	-1.469090
C	0.912874	2.598703	1.832310
H	0.767274	2.198703	2.854410
H	0.298074	3.518703	1.743910
H	1.975274	2.908303	1.743910
C	-0.227926	-1.976097	0.017710
H	-1.055226	-1.975797	-0.676590
H	0.298674	-2.679897	-0.609790
H	-0.836726	-2.494997	0.743310
H	0.940974	2.675903	-1.143890
$end

$rem
JOBTYPE		SP
EXCHANGE	HF
CORRELATION	pRIMP2
BASIS		cc-pvtz
METHOD		rimp2
AUX_BASIS	rimp2-cc-pvtz
SOLVENT_METHOD	PCM
PURECART	11111
SYMMETRY	false
MEM_TOTAL	110000
SCF_CONVERGENCE = 6
THRESH=10
$end

$solvent
dielectric 4.90
$end
--------------------------------------------------------------

             Standard Nuclear Orientation (Angstroms)
    I     Atom           X                Y                Z
 ----------------------------------------------------------------
    1      C      -0.2279260000    -0.5353970000     0.0177100000
    2      C       0.0674740000     0.2761030000     1.1171100000
    3      C       0.5407740000     1.5765030000     0.7944100000
    4      H      -0.0586260000    -0.0703970000     2.1538100000
    5      C       0.6162740000     1.7839030000    -0.5947900000
    6      S       0.0943740000     0.3502030000    -1.4690900000
    7      C       0.9128740000     2.5987030000     1.8323100000
    8      H       0.7672740000     2.1987030000     2.8544100000
    9      H       0.2980740000     3.5187030000     1.7439100000
   10      H       1.9752740000     2.9083030000     1.7439100000
   11      C      -0.2279260000    -1.9760970000     0.0177100000
   12      H      -1.0552260000    -1.9757970000    -0.6765900000
   13      H       0.2986740000    -2.6798970000    -0.6097900000
   14      H      -0.8367260000    -2.4949970000     0.7433100000
   15      H       0.9409740000     2.6759030000    -1.1438900000
 ----------------------------------------------------------------

   10    -629.4126906345      5.50e-07  Convergence criterion met
 Total energy in the final basis set =     -629.4126906345
        RIMP2         total energy =      -630.5915219043 a.u.

                    Orbital Energies (a.u.)
 --------------------------------------------------------------

 Alpha MOs
 -- Occupied --
-91.9785 -11.2760 -11.2567 -11.2472 -11.2290 -11.2268 -11.2166  -8.9785
 -6.6594  -6.6589  -6.6583  -1.1612  -1.0548  -0.9960  -0.9445  -0.8823
 -0.7465  -0.7194  -0.6463  -0.5895  -0.5749  -0.5705  -0.5505  -0.5466
 -0.5109  -0.4856  -0.4619  -0.4519  -0.3384  -0.2944

          Ground-State Mulliken Net Atomic Charges

     Atom                 Charge (a.u.)
  ----------------------------------------
      1 C                     0.009495
      2 C                    -0.247959
      3 C                     0.031997
      4 H                     0.181282
      5 C                    -0.251287
      6 S                    -0.006803
      7 C                    -0.272667
      8 H                     0.101497
      9 H                     0.106960
     10 H                     0.106708
     11 C                    -0.365790
     12 H                     0.122995
     13 H                     0.154262
     14 H                     0.135021
     15 H                     0.194287
  ----------------------------------------
  Sum of atomic charges =     0.000000

                    Cartesian Multipole Moments
 -----------------------------------------------------------------
    Charge (ESU x 10^10)
                -0.0000
    Dipole Moment (Debye)
         X      -0.0101      Y      -0.1944      Z       1.0780
       Tot       1.0955
    Quadrupole Moments (Debye-Ang)
        XX     -52.9531     XY       3.9157     YY     -43.1348
        XZ      -0.2048     YZ       1.1179     ZZ     -48.5995

 Total job time:  158.52s(wall), 155.95s(cpu)
        *  Thank you very much for using Q-Chem.  Have a nice day.  *
