 Q-Chem 5.4, Q-Chem, Inc., Pleasanton, CA (2021)
 Q-Chem 5.4.0 for Intel X86 EM64T Linux

User input:
--------------------------------------------------------------
$molecule
0 1
C	-0.285286	-0.512744	0.010353
C	0.079714	0.269956	1.109753
C	0.664614	1.524156	0.787053
H	-0.076186	-0.064344	2.146453
C	0.757914	1.724156	-0.602147
S	0.113014	0.341356	-1.476447
C	1.124314	2.509956	1.824953
H	0.944414	2.124256	2.847053
H	0.592014	3.480156	1.736553
H	2.209614	2.725856	1.736553
C	-0.285286	-1.953444	0.010353
H	-0.472986	-1.953644	1.073953
H	0.521414	-2.657244	0.152653
H	-1.217986	-2.472344	-0.154147
H	1.159014	2.584456	-1.151247
$end

$rem
JOBTYPE		SP
EXCHANGE	HF
CORRELATION	pRIMP2
BASIS		cc-pvtz
METHOD		rimp2
AUX_BASIS	rimp2-cc-pvtz
SOLVENT_METHOD	PCM
PURECART	11111
SYMMETRY	false
MEM_TOTAL	110000
SCF_CONVERGENCE = 6
THRESH=10
$end

$solvent
dielectric 4.90
$end
--------------------------------------------------------------

             Standard Nuclear Orientation (Angstroms)
    I     Atom           X                Y                Z
 ----------------------------------------------------------------
    1      C      -0.2852860000    -0.5127440000     0.0103530000
    2      C       0.0797140000     0.2699560000     1.1097530000
    3      C       0.6646140000     1.5241560000     0.7870530000
    4      H      -0.0761860000    -0.0643440000     2.1464530000
    5      C       0.7579140000     1.7241560000    -0.6021470000
    6      S       0.1130140000     0.3413560000    -1.4764470000
    7      C       1.1243140000     2.5099560000     1.8249530000
    8      H       0.9444140000     2.1242560000     2.8470530000
    9      H       0.5920140000     3.4801560000     1.7365530000
   10      H       2.2096140000     2.7258560000     1.7365530000
   11      C      -0.2852860000    -1.9534440000     0.0103530000
   12      H      -0.4729860000    -1.9536440000     1.0739530000
   13      H       0.5214140000    -2.6572440000     0.1526530000
   14      H      -1.2179860000    -2.4723440000    -0.1541470000
   15      H       1.1590140000     2.5844560000    -1.1512470000
 ----------------------------------------------------------------

   10    -629.4118103428      5.02e-07  Convergence criterion met
 Total energy in the final basis set =     -629.4118103428
        RIMP2         total energy =      -630.5927030069 a.u.

                    Orbital Energies (a.u.)
 --------------------------------------------------------------

 Alpha MOs
 -- Occupied --
-91.9740 -11.2711 -11.2621 -11.2474 -11.2380 -11.2278 -11.2140  -8.9743
 -6.6552  -6.6546  -6.6541  -1.1627  -1.0536  -0.9996  -0.9389  -0.8844
 -0.7430  -0.7258  -0.6479  -0.5888  -0.5793  -0.5680  -0.5576  -0.5419
 -0.5133  -0.4804  -0.4666  -0.4343  -0.3377  -0.3046

          Ground-State Mulliken Net Atomic Charges

     Atom                 Charge (a.u.)
  ----------------------------------------
      1 C                     0.021046
      2 C                    -0.258247
      3 C                     0.035996
      4 H                     0.177720
      5 C                    -0.242789
      6 S                    -0.004787
      7 C                    -0.270881
      8 H                     0.101336
      9 H                     0.106863
     10 H                     0.106904
     11 C                    -0.354606
     12 H                     0.114886
     13 H                     0.148118
     14 H                     0.124725
     15 H                     0.193716
  ----------------------------------------
  Sum of atomic charges =     0.000000

                    Cartesian Multipole Moments
 -----------------------------------------------------------------
    Charge (ESU x 10^10)
                -0.0000
    Dipole Moment (Debye)
         X       0.6231      Y       0.1054      Z       2.1790
       Tot       2.2688
    Quadrupole Moments (Debye-Ang)
        XX     -52.1921     XY       3.5333     YY     -44.0224
        XZ      -0.0073     YZ      -1.1167     ZZ     -48.8324

 Total job time:  157.58s(wall), 155.96s(cpu)
        *  Thank you very much for using Q-Chem.  Have a nice day.  *
