 Q-Chem 5.4, Q-Chem, Inc., Pleasanton, CA (2021)
 Q-Chem 5.4.0 for Intel X86 EM64T Linux

User input:
--------------------------------------------------------------
$molecule
0 1
C	-0.180453	-0.553189	0.015308
C	0.043047	0.281011	1.114708
C	0.401247	1.617711	0.792008
H	-0.052353	-0.075289	2.151408
C	0.458447	1.830811	-0.597192
S	0.063447	0.357111	-1.471492
C	0.682847	2.668411	1.829908
H	0.572647	2.257311	2.852008
H	-0.009753	3.531411	1.741508
H	1.714147	3.069411	1.741508
C	-0.180453	-1.993889	0.015308
H	0.883147	-1.994089	-0.172092
H	-0.322653	-2.697689	-0.791492
H	-0.015953	-2.512789	0.948008
H	0.704147	2.747711	-1.146292
$end

$rem
JOBTYPE		SP
EXCHANGE	HF
CORRELATION	pRIMP2
BASIS		cc-pvtz
METHOD		rimp2
AUX_BASIS	rimp2-cc-pvtz
SOLVENT_METHOD	PCM
PURECART	11111
SYMMETRY	false
MEM_TOTAL	110000
SCF_CONVERGENCE = 6
THRESH=10
$end

$solvent
dielectric 4.90
$end
--------------------------------------------------------------

             Standard Nuclear Orientation (Angstroms)
    I     Atom           X                Y                Z
 ----------------------------------------------------------------
    1      C      -0.1804530000    -0.5531890000     0.0153080000
    2      C       0.0430470000     0.2810110000     1.1147080000
    3      C       0.4012470000     1.6177110000     0.7920080000
    4      H      -0.0523530000    -0.0752890000     2.1514080000
    5      C       0.4584470000     1.8308110000    -0.5971920000
    6      S       0.0634470000     0.3571110000    -1.4714920000
    7      C       0.6828470000     2.6684110000     1.8299080000
    8      H       0.5726470000     2.2573110000     2.8520080000
    9      H      -0.0097530000     3.5314110000     1.7415080000
   10      H       1.7141470000     3.0694110000     1.7415080000
   11      C      -0.1804530000    -1.9938890000     0.0153080000
   12      H       0.8831470000    -1.9940890000    -0.1720920000
   13      H      -0.3226530000    -2.6976890000    -0.7914920000
   14      H      -0.0159530000    -2.5127890000     0.9480080000
   15      H       0.7041470000     2.7477110000    -1.1462920000
 ----------------------------------------------------------------

   10    -629.4226993559      7.08e-07  Convergence criterion met
 Total energy in the final basis set =     -629.4226993559
        RIMP2         total energy =      -630.5983263685 a.u.

                    Orbital Energies (a.u.)
 --------------------------------------------------------------

 Alpha MOs
 -- Occupied --
-91.9770 -11.2856 -11.2499 -11.2472 -11.2266 -11.2241 -11.2228  -8.9770
 -6.6581  -6.6575  -6.6569  -1.1615  -1.0567  -0.9969  -0.9420  -0.8823
 -0.7446  -0.7190  -0.6475  -0.5896  -0.5779  -0.5682  -0.5512  -0.5467
 -0.5070  -0.4941  -0.4658  -0.4559  -0.3392  -0.2887

          Ground-State Mulliken Net Atomic Charges

     Atom                 Charge (a.u.)
  ----------------------------------------
      1 C                     0.066396
      2 C                    -0.324664
      3 C                     0.060270
      4 H                     0.176909
      5 C                    -0.280175
      6 S                    -0.003571
      7 C                    -0.272383
      8 H                     0.101358
      9 H                     0.107452
     10 H                     0.107336
     11 C                    -0.375878
     12 H                     0.146833
     13 H                     0.158880
     14 H                     0.138810
     15 H                     0.192428
  ----------------------------------------
  Sum of atomic charges =     0.000000

                    Cartesian Multipole Moments
 -----------------------------------------------------------------
    Charge (ESU x 10^10)
                -0.0000
    Dipole Moment (Debye)
         X       1.0091      Y      -0.7322      Z       1.3144
       Tot       1.8117
    Quadrupole Moments (Debye-Ang)
        XX     -54.0813     XY       0.7908     YY     -42.3219
        XZ       0.2344     YZ       0.7016     ZZ     -48.6312

 Total job time:  156.38s(wall), 155.56s(cpu)
        *  Thank you very much for using Q-Chem.  Have a nice day.  *
