 Q-Chem 5.4, Q-Chem, Inc., Pleasanton, CA (2021)
 Q-Chem 5.4.0 for Intel X86 EM64T Linux

User input:
--------------------------------------------------------------
$molecule
0 1
C	-0.288624	-0.512746	0.019521
C	0.076376	0.269954	1.118921
C	0.661276	1.524154	0.796221
H	-0.079524	-0.064346	2.155621
C	0.754576	1.724154	-0.592979
S	0.109676	0.341354	-1.467279
C	1.120976	2.509954	1.834121
H	0.941076	2.124254	2.856221
H	0.588676	3.480154	1.745721
H	2.206276	2.725854	1.745721
C	-0.288624	-1.953446	0.019521
H	0.251476	-1.953146	-0.915679
H	0.420776	-2.657246	0.429121
H	-1.108824	-2.472346	-0.454079
H	1.155676	2.584454	-1.142079
$end

$rem
JOBTYPE		SP
EXCHANGE	HF
CORRELATION	pRIMP2
BASIS		cc-pvtz
METHOD		rimp2
AUX_BASIS	rimp2-cc-pvtz
SOLVENT_METHOD	PCM
PURECART	11111
SYMMETRY	false
MEM_TOTAL	110000
SCF_CONVERGENCE = 6
THRESH=10
$end

$solvent
dielectric 4.90
$end
--------------------------------------------------------------

             Standard Nuclear Orientation (Angstroms)
    I     Atom           X                Y                Z
 ----------------------------------------------------------------
    1      C      -0.2886240000    -0.5127460000     0.0195210000
    2      C       0.0763760000     0.2699540000     1.1189210000
    3      C       0.6612760000     1.5241540000     0.7962210000
    4      H      -0.0795240000    -0.0643460000     2.1556210000
    5      C       0.7545760000     1.7241540000    -0.5929790000
    6      S       0.1096760000     0.3413540000    -1.4672790000
    7      C       1.1209760000     2.5099540000     1.8341210000
    8      H       0.9410760000     2.1242540000     2.8562210000
    9      H       0.5886760000     3.4801540000     1.7457210000
   10      H       2.2062760000     2.7258540000     1.7457210000
   11      C      -0.2886240000    -1.9534460000     0.0195210000
   12      H       0.2514760000    -1.9531460000    -0.9156790000
   13      H       0.4207760000    -2.6572460000     0.4291210000
   14      H      -1.1088240000    -2.4723460000    -0.4540790000
   15      H       1.1556760000     2.5844540000    -1.1420790000
 ----------------------------------------------------------------

   10    -629.4072736760      5.98e-07  Convergence criterion met
 Total energy in the final basis set =     -629.4072736760
        RIMP2         total energy =      -630.5871234371 a.u.

                    Orbital Energies (a.u.)
 --------------------------------------------------------------

 Alpha MOs
 -- Occupied --
-91.9770 -11.2727 -11.2598 -11.2469 -11.2321 -11.2270 -11.2144  -8.9774
 -6.6584  -6.6578  -6.6572  -1.1631  -1.0556  -0.9946  -0.9454  -0.8807
 -0.7484  -0.7198  -0.6477  -0.5883  -0.5775  -0.5655  -0.5528  -0.5477
 -0.5114  -0.4833  -0.4636  -0.4457  -0.3386  -0.2987

          Ground-State Mulliken Net Atomic Charges

     Atom                 Charge (a.u.)
  ----------------------------------------
      1 C                     0.035090
      2 C                    -0.280686
      3 C                     0.049540
      4 H                     0.179747
      5 C                    -0.252515
      6 S                    -0.005507
      7 C                    -0.271580
      8 H                     0.101783
      9 H                     0.107327
     10 H                     0.106447
     11 C                    -0.370694
     12 H                     0.126531
     13 H                     0.155705
     14 H                     0.124084
     15 H                     0.194728
  ----------------------------------------
  Sum of atomic charges =     0.000000

                    Cartesian Multipole Moments
 -----------------------------------------------------------------
    Charge (ESU x 10^10)
                -0.0000
    Dipole Moment (Debye)
         X       1.0272      Y      -0.0343      Z       0.9599
       Tot       1.4063
    Quadrupole Moments (Debye-Ang)
        XX     -52.6113     XY       2.5583     YY     -44.0045
        XZ       0.4133     YZ       1.2775     ZZ     -48.6422

 Total job time:  157.93s(wall), 156.31s(cpu)
        *  Thank you very much for using Q-Chem.  Have a nice day.  *
