 Q-Chem 5.4, Q-Chem, Inc., Pleasanton, CA (2021)
 Q-Chem 5.4.0 for Intel X86 EM64T Linux

User input:
--------------------------------------------------------------
$molecule
0 1
C	-0.282017	-0.512746	0.013624
C	0.082983	0.269954	1.113024
C	0.667883	1.524154	0.790324
H	-0.072917	-0.064346	2.149724
C	0.761183	1.724154	-0.598876
S	0.116283	0.341354	-1.473176
C	1.127583	2.509954	1.828224
H	0.947683	2.124254	2.850324
H	0.595283	3.480154	1.739824
H	2.212883	2.725854	1.739824
C	-0.282017	-1.953446	0.013624
H	-1.345617	-1.953146	0.201024
H	-0.424217	-2.657246	-0.793176
H	-0.117517	-2.472346	0.946324
H	1.162283	2.584454	-1.147976
$end

$rem
JOBTYPE		SP
EXCHANGE	HF
CORRELATION	pRIMP2
BASIS		cc-pvtz
METHOD		rimp2
AUX_BASIS	rimp2-cc-pvtz
SOLVENT_METHOD	PCM
PURECART	11111
SYMMETRY	false
MEM_TOTAL	110000
SCF_CONVERGENCE = 6
THRESH=10
$end

$solvent
dielectric 4.90
$end
--------------------------------------------------------------

             Standard Nuclear Orientation (Angstroms)
    I     Atom           X                Y                Z
 ----------------------------------------------------------------
    1      C      -0.2820170000    -0.5127460000     0.0136240000
    2      C       0.0829830000     0.2699540000     1.1130240000
    3      C       0.6678830000     1.5241540000     0.7903240000
    4      H      -0.0729170000    -0.0643460000     2.1497240000
    5      C       0.7611830000     1.7241540000    -0.5988760000
    6      S       0.1162830000     0.3413540000    -1.4731760000
    7      C       1.1275830000     2.5099540000     1.8282240000
    8      H       0.9476830000     2.1242540000     2.8503240000
    9      H       0.5952830000     3.4801540000     1.7398240000
   10      H       2.2128830000     2.7258540000     1.7398240000
   11      C      -0.2820170000    -1.9534460000     0.0136240000
   12      H      -1.3456170000    -1.9531460000     0.2010240000
   13      H      -0.4242170000    -2.6572460000    -0.7931760000
   14      H      -0.1175170000    -2.4723460000     0.9463240000
   15      H       1.1622830000     2.5844540000    -1.1479760000
 ----------------------------------------------------------------

   10    -629.4071326260      5.99e-07  Convergence criterion met
 Total energy in the final basis set =     -629.4071326260
        RIMP2         total energy =      -630.5871400508 a.u.

                    Orbital Energies (a.u.)
 --------------------------------------------------------------

 Alpha MOs
 -- Occupied --
-91.9760 -11.2792 -11.2528 -11.2473 -11.2281 -11.2267 -11.2175  -8.9761
 -6.6570  -6.6564  -6.6559  -1.1610  -1.0549  -0.9973  -0.9411  -0.8830
 -0.7437  -0.7203  -0.6457  -0.5877  -0.5747  -0.5702  -0.5538  -0.5444
 -0.5108  -0.4942  -0.4588  -0.4506  -0.3375  -0.2873

          Ground-State Mulliken Net Atomic Charges

     Atom                 Charge (a.u.)
  ----------------------------------------
      1 C                     0.041479
      2 C                    -0.297926
      3 C                     0.052560
      4 H                     0.176218
      5 C                    -0.269940
      6 S                     0.003115
      7 C                    -0.270905
      8 H                     0.101386
      9 H                     0.107117
     10 H                     0.106850
     11 C                    -0.380865
     12 H                     0.135775
     13 H                     0.161657
     14 H                     0.141681
     15 H                     0.191797
  ----------------------------------------
  Sum of atomic charges =     0.000000

                    Cartesian Multipole Moments
 -----------------------------------------------------------------
    Charge (ESU x 10^10)
                -0.0000
    Dipole Moment (Debye)
         X      -0.1672      Y      -0.5374      Z       1.5986
       Tot       1.6948
    Quadrupole Moments (Debye-Ang)
        XX     -52.5596     XY       4.9146     YY     -43.6904
        XZ       0.1998     YZ       0.1872     ZZ     -48.4519

 Total job time:  156.93s(wall), 155.66s(cpu)
        *  Thank you very much for using Q-Chem.  Have a nice day.  *
