 Q-Chem 5.4, Q-Chem, Inc., Pleasanton, CA (2021)
 Q-Chem 5.4.0 for Intel X86 EM64T Linux

User input:
--------------------------------------------------------------
$molecule
0 1
C	-0.582714	-0.237127	0.013913
C	0.165186	0.194673	1.113313
C	1.363686	0.886573	0.790613
H	-0.154214	0.010273	2.150013
C	1.554786	0.996873	-0.598587
S	0.233486	0.234073	-1.472887
C	2.305786	1.430473	1.828513
H	1.937086	1.217573	2.850613
H	2.426186	2.530373	1.740113
H	3.318586	0.984673	1.740113
C	-0.582714	-1.677827	0.013913
H	-1.597614	-1.678027	0.383213
H	-0.302614	-2.381627	0.783713
H	-0.906614	-2.196727	-0.876087
H	2.376886	1.471473	-1.147687
$end

$rem
JOBTYPE		SP
EXCHANGE	HF
CORRELATION	pRIMP2
BASIS		cc-pvtz
METHOD		rimp2
AUX_BASIS	rimp2-cc-pvtz
SOLVENT_METHOD	PCM
PURECART	11111
SYMMETRY	false
MEM_TOTAL	110000
SCF_CONVERGENCE = 6
THRESH=10
$end

$solvent
dielectric 4.90
$end
--------------------------------------------------------------

             Standard Nuclear Orientation (Angstroms)
    I     Atom           X                Y                Z
 ----------------------------------------------------------------
    1      C      -0.5827140000    -0.2371270000     0.0139130000
    2      C       0.1651860000     0.1946730000     1.1133130000
    3      C       1.3636860000     0.8865730000     0.7906130000
    4      H      -0.1542140000     0.0102730000     2.1500130000
    5      C       1.5547860000     0.9968730000    -0.5985870000
    6      S       0.2334860000     0.2340730000    -1.4728870000
    7      C       2.3057860000     1.4304730000     1.8285130000
    8      H       1.9370860000     1.2175730000     2.8506130000
    9      H       2.4261860000     2.5303730000     1.7401130000
   10      H       3.3185860000     0.9846730000     1.7401130000
   11      C      -0.5827140000    -1.6778270000     0.0139130000
   12      H      -1.5976140000    -1.6780270000     0.3832130000
   13      H      -0.3026140000    -2.3816270000     0.7837130000
   14      H      -0.9066140000    -2.1967270000    -0.8760870000
   15      H       2.3768860000     1.4714730000    -1.1476870000
 ----------------------------------------------------------------

   11    -629.3387359049      6.00e-07  Convergence criterion met
 Total energy in the final basis set =     -629.3387359049
        RIMP2         total energy =      -630.5313334019 a.u.

                    Orbital Energies (a.u.)
 --------------------------------------------------------------

 Alpha MOs
 -- Occupied --
-91.9708 -11.2806 -11.2531 -11.2488 -11.2415 -11.2287 -11.2050  -8.9720
 -6.6528  -6.6518  -6.6516  -1.1716  -1.0547  -0.9980  -0.9384  -0.8821
 -0.7496  -0.7305  -0.6436  -0.5865  -0.5788  -0.5647  -0.5538  -0.5422
 -0.5187  -0.4909  -0.4596  -0.4172  -0.3350  -0.2862

          Ground-State Mulliken Net Atomic Charges

     Atom                 Charge (a.u.)
  ----------------------------------------
      1 C                    -0.102924
      2 C                    -0.134804
      3 C                    -0.016087
      4 H                     0.184112
      5 C                    -0.182441
      6 S                     0.012960
      7 C                    -0.268759
      8 H                     0.101781
      9 H                     0.106657
     10 H                     0.104594
     11 C                    -0.397249
     12 H                     0.124635
     13 H                     0.146118
     14 H                     0.125960
     15 H                     0.195448
  ----------------------------------------
  Sum of atomic charges =     0.000000

                    Cartesian Multipole Moments
 -----------------------------------------------------------------
    Charge (ESU x 10^10)
                -0.0000
    Dipole Moment (Debye)
         X       1.8389      Y       0.0741      Z       1.9482
       Tot       2.6800
    Quadrupole Moments (Debye-Ang)
        XX     -47.7813     XY       5.2060     YY     -50.1171
        XZ      -0.1488     YZ      -0.3025     ZZ     -47.5907

 Total job time:  175.49s(wall), 174.41s(cpu)
        *  Thank you very much for using Q-Chem.  Have a nice day.  *
