 Q-Chem 5.4, Q-Chem, Inc., Pleasanton, CA (2021)
 Q-Chem 5.4.0 for Intel X86 EM64T Linux

User input:
--------------------------------------------------------------
$molecule
0 1
C	-0.335091	-0.485421	0.017710
C	0.096709	0.262479	1.117110
C	0.788709	1.460979	0.794410
H	-0.087691	-0.056921	2.153810
C	0.899009	1.652079	-0.594790
S	0.136109	0.330679	-1.469090
C	1.332609	2.402979	1.832310
H	1.119809	2.034379	2.854410
H	0.886909	3.415779	1.743910
H	2.432609	2.523379	1.743910
C	-0.335091	-1.926121	0.017710
H	-1.162391	-1.925821	-0.676590
H	0.191509	-2.629921	-0.609790
H	-0.943891	-2.445021	0.743310
H	1.373709	2.474079	-1.143890
$end

$rem
JOBTYPE		SP
EXCHANGE	HF
CORRELATION	pRIMP2
BASIS		cc-pvtz
METHOD		rimp2
AUX_BASIS	rimp2-cc-pvtz
SOLVENT_METHOD	PCM
PURECART	11111
SYMMETRY	false
MEM_TOTAL	110000
SCF_CONVERGENCE = 6
THRESH=10
$end

$solvent
dielectric 4.90
$end
--------------------------------------------------------------

             Standard Nuclear Orientation (Angstroms)
    I     Atom           X                Y                Z
 ----------------------------------------------------------------
    1      C      -0.3350910000    -0.4854210000     0.0177100000
    2      C       0.0967090000     0.2624790000     1.1171100000
    3      C       0.7887090000     1.4609790000     0.7944100000
    4      H      -0.0876910000    -0.0569210000     2.1538100000
    5      C       0.8990090000     1.6520790000    -0.5947900000
    6      S       0.1361090000     0.3306790000    -1.4690900000
    7      C       1.3326090000     2.4029790000     1.8323100000
    8      H       1.1198090000     2.0343790000     2.8544100000
    9      H       0.8869090000     3.4157790000     1.7439100000
   10      H       2.4326090000     2.5233790000     1.7439100000
   11      C      -0.3350910000    -1.9261210000     0.0177100000
   12      H      -1.1623910000    -1.9258210000    -0.6765900000
   13      H       0.1915090000    -2.6299210000    -0.6097900000
   14      H      -0.9438910000    -2.4450210000     0.7433100000
   15      H       1.3737090000     2.4740790000    -1.1438900000
 ----------------------------------------------------------------

   10    -629.4009011523      5.29e-07  Convergence criterion met
 Total energy in the final basis set =     -629.4009011523
        RIMP2         total energy =      -630.5824888855 a.u.

                    Orbital Energies (a.u.)
 --------------------------------------------------------------

 Alpha MOs
 -- Occupied --
-91.9781 -11.2703 -11.2607 -11.2475 -11.2320 -11.2270 -11.2140  -8.9782
 -6.6591  -6.6586  -6.6580  -1.1624  -1.0543  -0.9957  -0.9441  -0.8821
 -0.7472  -0.7206  -0.6449  -0.5884  -0.5749  -0.5718  -0.5504  -0.5459
 -0.5127  -0.4831  -0.4587  -0.4500  -0.3378  -0.2941

          Ground-State Mulliken Net Atomic Charges

     Atom                 Charge (a.u.)
  ----------------------------------------
      1 C                    -0.014002
      2 C                    -0.232496
      3 C                     0.032610
      4 H                     0.181250
      5 C                    -0.242800
      6 S                    -0.003409
      7 C                    -0.271344
      8 H                     0.101573
      9 H                     0.106908
     10 H                     0.106108
     11 C                    -0.369232
     12 H                     0.121528
     13 H                     0.157317
     14 H                     0.131393
     15 H                     0.194597
  ----------------------------------------
  Sum of atomic charges =     0.000000

                    Cartesian Multipole Moments
 -----------------------------------------------------------------
    Charge (ESU x 10^10)
                -0.0000
    Dipole Moment (Debye)
         X       0.3548      Y      -0.0363      Z       1.1393
       Tot       1.1939
    Quadrupole Moments (Debye-Ang)
        XX     -51.7867     XY       4.8672     YY     -44.5802
        XZ      -0.2023     YZ       0.9718     ZZ     -48.4836

 Total job time:  158.42s(wall), 154.93s(cpu)
        *  Thank you very much for using Q-Chem.  Have a nice day.  *
