 Q-Chem 5.4, Q-Chem, Inc., Pleasanton, CA (2021)
 Q-Chem 5.4.0 for Intel X86 EM64T Linux

User input:
--------------------------------------------------------------
$molecule
0 1
C	-0.524399	-0.333972	0.016151
C	0.137201	0.221128	1.115551
C	1.197301	1.110628	0.792851
H	-0.145299	-0.015972	2.152251
C	1.366401	1.252428	-0.596349
S	0.197501	0.271728	-1.470649
C	2.030601	1.809828	1.830751
H	1.704501	1.536228	2.852851
H	1.958201	2.914028	1.742351
H	3.105401	1.546728	1.742351
C	-0.524399	-1.774672	0.016151
H	0.490501	-1.774872	-0.353149
H	-0.804499	-2.478472	-0.753649
H	-0.200499	-2.293572	0.906151
H	2.093501	1.862628	-1.145449
$end

$rem
JOBTYPE		SP
EXCHANGE	HF
CORRELATION	pRIMP2
BASIS		cc-pvtz
METHOD		rimp2
AUX_BASIS	rimp2-cc-pvtz
SOLVENT_METHOD	PCM
PURECART	11111
SYMMETRY	false
MEM_TOTAL	110000
SCF_CONVERGENCE = 6
THRESH=10
$end

$solvent
dielectric 4.90
$end
--------------------------------------------------------------

             Standard Nuclear Orientation (Angstroms)
    I     Atom           X                Y                Z
 ----------------------------------------------------------------
    1      C      -0.5243990000    -0.3339720000     0.0161510000
    2      C       0.1372010000     0.2211280000     1.1155510000
    3      C       1.1973010000     1.1106280000     0.7928510000
    4      H      -0.1452990000    -0.0159720000     2.1522510000
    5      C       1.3664010000     1.2524280000    -0.5963490000
    6      S       0.1975010000     0.2717280000    -1.4706490000
    7      C       2.0306010000     1.8098280000     1.8307510000
    8      H       1.7045010000     1.5362280000     2.8528510000
    9      H       1.9582010000     2.9140280000     1.7423510000
   10      H       3.1054010000     1.5467280000     1.7423510000
   11      C      -0.5243990000    -1.7746720000     0.0161510000
   12      H       0.4905010000    -1.7748720000    -0.3531490000
   13      H      -0.8044990000    -2.4784720000    -0.7536490000
   14      H      -0.2004990000    -2.2935720000     0.9061510000
   15      H       2.0935010000     1.8626280000    -1.1454490000
 ----------------------------------------------------------------

   10    -629.3737744488      6.14e-07  Convergence criterion met
 Total energy in the final basis set =     -629.3737744488
        RIMP2         total energy =      -630.5604862250 a.u.

                    Orbital Energies (a.u.)
 --------------------------------------------------------------

 Alpha MOs
 -- Occupied --
-91.9720 -11.2691 -11.2673 -11.2497 -11.2392 -11.2285 -11.2156  -8.9733
 -6.6542  -6.6534  -6.6530  -1.1724  -1.0584  -0.9964  -0.9401  -0.8802
 -0.7503  -0.7259  -0.6444  -0.5880  -0.5856  -0.5664  -0.5520  -0.5464
 -0.5098  -0.4948  -0.4607  -0.4403  -0.3403  -0.2889

          Ground-State Mulliken Net Atomic Charges

     Atom                 Charge (a.u.)
  ----------------------------------------
      1 C                    -0.010957
      2 C                    -0.232827
      3 C                     0.023291
      4 H                     0.180993
      5 C                    -0.228855
      6 S                    -0.004223
      7 C                    -0.268567
      8 H                     0.102040
      9 H                     0.107863
     10 H                     0.105995
     11 C                    -0.365908
     12 H                     0.130690
     13 H                     0.138222
     14 H                     0.127212
     15 H                     0.195032
  ----------------------------------------
  Sum of atomic charges =     0.000000

                    Cartesian Multipole Moments
 -----------------------------------------------------------------
    Charge (ESU x 10^10)
                -0.0000
    Dipole Moment (Debye)
         X       2.1515      Y      -0.2312      Z       1.4875
       Tot       2.6258
    Quadrupole Moments (Debye-Ang)
        XX     -50.1423     XY       3.7992     YY     -47.9804
        XZ       0.2261     YZ       0.6070     ZZ     -48.1978

 Total job time:  163.18s(wall), 161.19s(cpu)
        *  Thank you very much for using Q-Chem.  Have a nice day.  *
