 Q-Chem 5.4, Q-Chem, Inc., Pleasanton, CA (2021)
 Q-Chem 5.4.0 for Intel X86 EM64T Linux

User input:
--------------------------------------------------------------
$molecule
0 1
C	-0.118387	-0.566007	0.019884
C	0.031613	0.284493	1.119284
C	0.271913	1.647393	0.796584
H	-0.032487	-0.078707	2.155984
C	0.310313	1.864693	-0.592616
S	0.045313	0.362093	-1.466916
C	0.460813	2.718593	1.834484
H	0.386913	2.299393	2.856584
H	-0.304387	3.517893	1.746084
H	1.453313	3.207893	1.746084
C	-0.118387	-2.006707	0.019884
H	-0.118287	-2.006907	-1.060116
H	-0.937587	-2.710507	0.019784
H	0.828713	-2.525607	0.019884
H	0.475113	2.799393	-1.141716
$end

$rem
JOBTYPE		SP
EXCHANGE	HF
CORRELATION	pRIMP2
BASIS		cc-pvtz
METHOD		rimp2
AUX_BASIS	rimp2-cc-pvtz
SOLVENT_METHOD	PCM
PURECART	11111
SYMMETRY	false
MEM_TOTAL	110000
SCF_CONVERGENCE = 6
THRESH=10
$end

$solvent
dielectric 4.90
$end
--------------------------------------------------------------

   10    -629.4188857083      5.40e-07  Convergence criterion met
 Total energy in the final basis set =     -629.4188857083
        RIMP2         total energy =      -630.5971220393 a.u.
 Total job time:  157.94s(wall), 155.84s(cpu)
        *  Thank you very much for using Q-Chem.  Have a nice day.  *
 Q-Chem 5.4, Q-Chem, Inc., Pleasanton, CA (2021)
 Q-Chem 5.4.0 for Intel X86 EM64T Linux

User input:
--------------------------------------------------------------
$molecule
0 1
C	-0.118387	-0.566007	0.019884
C	0.031613	0.284493	1.119284
C	0.271913	1.647393	0.796584
H	-0.032487	-0.078707	2.155984
C	0.310313	1.864693	-0.592616
S	0.045313	0.362093	-1.466916
C	0.460813	2.718593	1.834484
H	0.386913	2.299393	2.856584
H	-0.304387	3.517893	1.746084
H	1.453313	3.207893	1.746084
C	-0.118387	-2.006707	0.019884
H	-0.118287	-2.006907	-1.060116
H	-0.937587	-2.710507	0.019784
H	0.828713	-2.525607	0.019884
H	0.475113	2.799393	-1.141716
$end

$rem
JOBTYPE		SP
EXCHANGE	HF
CORRELATION	pRIMP2
BASIS		cc-pvtz
METHOD		rimp2
AUX_BASIS	rimp2-cc-pvtz
SOLVENT_METHOD	PCM
PURECART	11111
SYMMETRY	false
MEM_TOTAL	110000
SCF_CONVERGENCE = 6
THRESH=10
$end

$solvent
dielectric 4.90
$end
--------------------------------------------------------------

             Standard Nuclear Orientation (Angstroms)
    I     Atom           X                Y                Z
 ----------------------------------------------------------------
    1      C      -0.1183870000    -0.5660070000     0.0198840000
    2      C       0.0316130000     0.2844930000     1.1192840000
    3      C       0.2719130000     1.6473930000     0.7965840000
    4      H      -0.0324870000    -0.0787070000     2.1559840000
    5      C       0.3103130000     1.8646930000    -0.5926160000
    6      S       0.0453130000     0.3620930000    -1.4669160000
    7      C       0.4608130000     2.7185930000     1.8344840000
    8      H       0.3869130000     2.2993930000     2.8565840000
    9      H      -0.3043870000     3.5178930000     1.7460840000
   10      H       1.4533130000     3.2078930000     1.7460840000
   11      C      -0.1183870000    -2.0067070000     0.0198840000
   12      H      -0.1182870000    -2.0069070000    -1.0601160000
   13      H      -0.9375870000    -2.7105070000     0.0197840000
   14      H       0.8287130000    -2.5256070000     0.0198840000
   15      H       0.4751130000     2.7993930000    -1.1417160000
 ----------------------------------------------------------------

   10    -629.4188857083      5.40e-07  Convergence criterion met
 Total energy in the final basis set =     -629.4188857083
        RIMP2         total energy =      -630.5971220393 a.u.

                    Orbital Energies (a.u.)
 --------------------------------------------------------------

 Alpha MOs
 -- Occupied --
-91.9806 -11.2742 -11.2582 -11.2471 -11.2295 -11.2269 -11.2158  -8.9804
 -6.6614  -6.6608  -6.6602  -1.1612  -1.0551  -0.9952  -0.9463  -0.8815
 -0.7481  -0.7187  -0.6479  -0.5917  -0.5754  -0.5657  -0.5536  -0.5474
 -0.5090  -0.4855  -0.4650  -0.4436  -0.3382  -0.3041

          Ground-State Mulliken Net Atomic Charges

     Atom                 Charge (a.u.)
  ----------------------------------------
      1 C                     0.054194
      2 C                    -0.265549
      3 C                     0.042476
      4 H                     0.179642
      5 C                    -0.260041
      6 S                    -0.002806
      7 C                    -0.273010
      8 H                     0.101887
      9 H                     0.106837
     10 H                     0.106801
     11 C                    -0.369436
     12 H                     0.112296
     13 H                     0.146255
     14 H                     0.125004
     15 H                     0.195450
  ----------------------------------------
  Sum of atomic charges =     0.000000

                    Cartesian Multipole Moments
 -----------------------------------------------------------------
    Charge (ESU x 10^10)
                -0.0000
    Dipole Moment (Debye)
         X       0.2911      Y       0.0459      Z       0.8545
       Tot       0.9039
    Quadrupole Moments (Debye-Ang)
        XX     -53.4437     XY       1.6256     YY     -42.4921
        XZ       0.1071     YZ       1.4742     ZZ     -48.8268

 Total job time:  156.68s(wall), 154.59s(cpu)
        *  Thank you very much for using Q-Chem.  Have a nice day.  *
