 Q-Chem 5.4, Q-Chem, Inc., Pleasanton, CA (2021)
 Q-Chem 5.4.0 for Intel X86 EM64T Linux

User input:
--------------------------------------------------------------
$molecule
0 1
C	-0.059719	-0.573729	0.010180
C	0.015581	0.286571	1.109580
C	0.136181	1.665271	0.786880
H	-0.016519	-0.080829	2.146280
C	0.155481	1.885071	-0.602320
S	0.022481	0.365071	-1.476620
C	0.231081	2.748871	1.824780
H	0.193981	2.324771	2.846880
H	-0.600919	3.478371	1.736380
H	1.177081	3.322871	1.736380
C	-0.059719	-2.014429	0.010180
H	-0.059819	-2.014129	1.090180
H	-0.878919	-2.718229	0.010080
H	0.887381	-2.533329	0.010180
H	0.238181	2.830671	-1.151420
$end

$rem
JOBTYPE		SP
EXCHANGE	HF
CORRELATION	pRIMP2
BASIS		cc-pvtz
METHOD		rimp2
AUX_BASIS	rimp2-cc-pvtz
SOLVENT_METHOD	PCM
PURECART	11111
SYMMETRY	false
MEM_TOTAL	110000
SCF_CONVERGENCE = 6
THRESH=10
$end

$solvent
dielectric 4.90
$end
--------------------------------------------------------------

             Standard Nuclear Orientation (Angstroms)
    I     Atom           X                Y                Z
 ----------------------------------------------------------------
    1      C      -0.0597190000    -0.5737290000     0.0101800000
    2      C       0.0155810000     0.2865710000     1.1095800000
    3      C       0.1361810000     1.6652710000     0.7868800000
    4      H      -0.0165190000    -0.0808290000     2.1462800000
    5      C       0.1554810000     1.8850710000    -0.6023200000
    6      S       0.0224810000     0.3650710000    -1.4766200000
    7      C       0.2310810000     2.7488710000     1.8247800000
    8      H       0.1939810000     2.3247710000     2.8468800000
    9      H      -0.6009190000     3.4783710000     1.7363800000
   10      H       1.1770810000     3.3228710000     1.7363800000
   11      C      -0.0597190000    -2.0144290000     0.0101800000
   12      H      -0.0598190000    -2.0141290000     1.0901800000
   13      H      -0.8789190000    -2.7182290000     0.0100800000
   14      H       0.8873810000    -2.5333290000     0.0101800000
   15      H       0.2381810000     2.8306710000    -1.1514200000
 ----------------------------------------------------------------

   10    -629.4248654509      4.91e-07  Convergence criterion met
 Total energy in the final basis set =     -629.4248654509
        RIMP2         total energy =      -630.6027564997 a.u.

                    Orbital Energies (a.u.)
 --------------------------------------------------------------

 Alpha MOs
 -- Occupied --
-91.9748 -11.2776 -11.2575 -11.2470 -11.2345 -11.2274 -11.2164  -8.9749
 -6.6559  -6.6553  -6.6548  -1.1611  -1.0540  -0.9997  -0.9396  -0.8845
 -0.7423  -0.7243  -0.6488  -0.5919  -0.5778  -0.5661  -0.5598  -0.5419
 -0.5102  -0.4852  -0.4680  -0.4371  -0.3380  -0.3044

          Ground-State Mulliken Net Atomic Charges

     Atom                 Charge (a.u.)
  ----------------------------------------
      1 C                     0.067052
      2 C                    -0.271706
      3 C                     0.031369
      4 H                     0.177414
      5 C                    -0.250092
      6 S                    -0.008590
      7 C                    -0.273595
      8 H                     0.101091
      9 H                     0.107171
     10 H                     0.107316
     11 C                    -0.372718
     12 H                     0.119782
     13 H                     0.145725
     14 H                     0.126461
     15 H                     0.193321
  ----------------------------------------
  Sum of atomic charges =     0.000000

                    Cartesian Multipole Moments
 -----------------------------------------------------------------
    Charge (ESU x 10^10)
                -0.0000
    Dipole Moment (Debye)
         X       0.1480      Y      -0.0658      Z       2.1515
       Tot       2.1576
    Quadrupole Moments (Debye-Ang)
        XX     -53.6261     XY       0.8719     YY     -42.2287
        XZ      -0.0199     YZ      -1.0913     ZZ     -48.9746

 Total job time:  161.96s(wall), 159.84s(cpu)
        *  Thank you very much for using Q-Chem.  Have a nice day.  *
