 Q-Chem 5.4, Q-Chem, Inc., Pleasanton, CA (2021)
 Q-Chem 5.4.0 for Intel X86 EM64T Linux

User input:
--------------------------------------------------------------
$molecule
0 1
C	-0.233132	-0.535397	0.019787
C	0.062268	0.276103	1.119187
C	0.535568	1.576503	0.796487
H	-0.063832	-0.070397	2.155887
C	0.611068	1.783903	-0.592713
S	0.089168	0.350203	-1.467013
C	0.907668	2.598703	1.834387
H	0.762068	2.198703	2.856487
H	0.292868	3.518703	1.745987
H	1.970068	2.908303	1.745987
C	-0.233132	-1.976097	0.019787
H	0.136368	-1.975797	-0.995013
H	0.536668	-2.679897	0.299987
H	-1.123132	-2.494997	-0.304113
H	0.935768	2.675903	-1.141813
$end

$rem
JOBTYPE		SP
EXCHANGE	HF
CORRELATION	pRIMP2
BASIS		cc-pvtz
METHOD		rimp2
AUX_BASIS	rimp2-cc-pvtz
SOLVENT_METHOD	PCM
PURECART	11111
SYMMETRY	false
MEM_TOTAL	110000
SCF_CONVERGENCE = 6
THRESH=10
$end

$solvent
dielectric 4.90
$end
--------------------------------------------------------------

             Standard Nuclear Orientation (Angstroms)
    I     Atom           X                Y                Z
 ----------------------------------------------------------------
    1      C      -0.2331320000    -0.5353970000     0.0197870000
    2      C       0.0622680000     0.2761030000     1.1191870000
    3      C       0.5355680000     1.5765030000     0.7964870000
    4      H      -0.0638320000    -0.0703970000     2.1558870000
    5      C       0.6110680000     1.7839030000    -0.5927130000
    6      S       0.0891680000     0.3502030000    -1.4670130000
    7      C       0.9076680000     2.5987030000     1.8343870000
    8      H       0.7620680000     2.1987030000     2.8564870000
    9      H       0.2928680000     3.5187030000     1.7459870000
   10      H       1.9700680000     2.9083030000     1.7459870000
   11      C      -0.2331320000    -1.9760970000     0.0197870000
   12      H       0.1363680000    -1.9757970000    -0.9950130000
   13      H       0.5366680000    -2.6798970000     0.2999870000
   14      H      -1.1231320000    -2.4949970000    -0.3041130000
   15      H       0.9357680000     2.6759030000    -1.1418130000
 ----------------------------------------------------------------

   10    -629.4116220647      5.68e-07  Convergence criterion met
 Total energy in the final basis set =     -629.4116220647
        RIMP2         total energy =      -630.5909521532 a.u.

                    Orbital Energies (a.u.)
 --------------------------------------------------------------

 Alpha MOs
 -- Occupied --
-91.9786 -11.2727 -11.2595 -11.2470 -11.2313 -11.2270 -11.2146  -8.9788
 -6.6597  -6.6591  -6.6585  -1.1622  -1.0553  -0.9948  -0.9459  -0.8811
 -0.7484  -0.7194  -0.6479  -0.5893  -0.5766  -0.5659  -0.5531  -0.5475
 -0.5109  -0.4828  -0.4643  -0.4446  -0.3383  -0.3015

          Ground-State Mulliken Net Atomic Charges

     Atom                 Charge (a.u.)
  ----------------------------------------
      1 C                     0.039118
      2 C                    -0.274164
      3 C                     0.047826
      4 H                     0.179891
      5 C                    -0.255119
      6 S                    -0.004612
      7 C                    -0.272311
      8 H                     0.101863
      9 H                     0.107137
     10 H                     0.106571
     11 C                    -0.366593
     12 H                     0.120038
     13 H                     0.151301
     14 H                     0.123802
     15 H                     0.195253
  ----------------------------------------
  Sum of atomic charges =     0.000000

                    Cartesian Multipole Moments
 -----------------------------------------------------------------
    Charge (ESU x 10^10)
                -0.0000
    Dipole Moment (Debye)
         X       0.7748      Y       0.0323      Z       0.9026
       Tot       1.1900
    Quadrupole Moments (Debye-Ang)
        XX     -52.9262     XY       2.2339     YY     -43.4060
        XZ       0.3374     YZ       1.3712     ZZ     -48.7122

 Total job time:  157.23s(wall), 155.05s(cpu)
        *  Thank you very much for using Q-Chem.  Have a nice day.  *
