 Q-Chem 5.4, Q-Chem, Inc., Pleasanton, CA (2021)
 Q-Chem 5.4.0 for Intel X86 EM64T Linux

User input:
--------------------------------------------------------------
$molecule
0 1
C	-0.063508	-0.573727	0.012832
C	0.011792	0.286573	1.112232
C	0.132392	1.665273	0.789532
H	-0.020308	-0.080827	2.148932
C	0.151692	1.885073	-0.599668
S	0.018692	0.365073	-1.473968
C	0.227292	2.748873	1.827432
H	0.190192	2.324773	2.849532
H	-0.604708	3.478373	1.739032
H	1.173292	3.322873	1.739032
C	-0.063508	-2.014427	0.012832
H	0.951292	-2.014627	0.382332
H	0.216692	-2.718227	-0.756968
H	-0.387408	-2.533327	0.902832
H	0.234392	2.830673	-1.148768
$end

$rem
JOBTYPE		SP
EXCHANGE	HF
CORRELATION	pRIMP2
BASIS		cc-pvtz
METHOD		rimp2
AUX_BASIS	rimp2-cc-pvtz
SOLVENT_METHOD	PCM
PURECART	11111
SYMMETRY	false
MEM_TOTAL	110000
SCF_CONVERGENCE = 6
THRESH=10
$end

$solvent
dielectric 4.90
$end
--------------------------------------------------------------

             Standard Nuclear Orientation (Angstroms)
    I     Atom           X                Y                Z
 ----------------------------------------------------------------
    1      C      -0.0635080000    -0.5737270000     0.0128320000
    2      C       0.0117920000     0.2865730000     1.1122320000
    3      C       0.1323920000     1.6652730000     0.7895320000
    4      H      -0.0203080000    -0.0808270000     2.1489320000
    5      C       0.1516920000     1.8850730000    -0.5996680000
    6      S       0.0186920000     0.3650730000    -1.4739680000
    7      C       0.2272920000     2.7488730000     1.8274320000
    8      H       0.1901920000     2.3247730000     2.8495320000
    9      H      -0.6047080000     3.4783730000     1.7390320000
   10      H       1.1732920000     3.3228730000     1.7390320000
   11      C      -0.0635080000    -2.0144270000     0.0128320000
   12      H       0.9512920000    -2.0146270000     0.3823320000
   13      H       0.2166920000    -2.7182270000    -0.7569680000
   14      H      -0.3874080000    -2.5333270000     0.9028320000
   15      H       0.2343920000     2.8306730000    -1.1487680000
 ----------------------------------------------------------------

   10    -629.4242054774      6.79e-07  Convergence criterion met
 Total energy in the final basis set =     -629.4242054774
        RIMP2         total energy =      -630.6000565098 a.u.

                    Orbital Energies (a.u.)
 --------------------------------------------------------------

 Alpha MOs
 -- Occupied --
-91.9780 -11.2863 -11.2483 -11.2471 -11.2266 -11.2236 -11.2218  -8.9777
 -6.6587  -6.6582  -6.6576  -1.1603  -1.0561  -0.9982  -0.9406  -0.8831
 -0.7429  -0.7193  -0.6481  -0.5902  -0.5739  -0.5713  -0.5554  -0.5445
 -0.5081  -0.4908  -0.4663  -0.4549  -0.3378  -0.2892

          Ground-State Mulliken Net Atomic Charges

     Atom                 Charge (a.u.)
  ----------------------------------------
      1 C                     0.072052
      2 C                    -0.304320
      3 C                     0.046649
      4 H                     0.175045
      5 C                    -0.280264
      6 S                    -0.000517
      7 C                    -0.274721
      8 H                     0.101181
      9 H                     0.107301
     10 H                     0.107373
     11 C                    -0.389575
     12 H                     0.145699
     13 H                     0.162279
     14 H                     0.139867
     15 H                     0.191952
  ----------------------------------------
  Sum of atomic charges =     0.000000

                    Cartesian Multipole Moments
 -----------------------------------------------------------------
    Charge (ESU x 10^10)
                -0.0000
    Dipole Moment (Debye)
         X       0.7861      Y      -0.7586      Z       1.6540
       Tot       1.9822
    Quadrupole Moments (Debye-Ang)
        XX     -54.3263     XY      -0.7546     YY     -41.8630
        XZ      -0.1339     YZ      -0.0229     ZZ     -48.6267

 Total job time:  158.73s(wall), 157.28s(cpu)
        *  Thank you very much for using Q-Chem.  Have a nice day.  *
