 Q-Chem 5.4, Q-Chem, Inc., Pleasanton, CA (2021)
 Q-Chem 5.4.0 for Intel X86 EM64T Linux

User input:
--------------------------------------------------------------
$molecule
0 1
C	-0.334499	-0.485421	0.013624
C	0.097301	0.262479	1.113024
C	0.789301	1.460979	0.790324
H	-0.087099	-0.056921	2.149724
C	0.899601	1.652079	-0.598876
S	0.136701	0.330679	-1.473176
C	1.333201	2.402979	1.828224
H	1.120401	2.034379	2.850324
H	0.887501	3.415779	1.739824
H	2.433201	2.523379	1.739824
C	-0.334499	-1.926121	0.013624
H	-1.398099	-1.925821	0.201024
H	-0.476699	-2.629921	-0.793176
H	-0.169999	-2.445021	0.946324
H	1.374301	2.474079	-1.147976
$end

$rem
JOBTYPE		SP
EXCHANGE	HF
CORRELATION	pRIMP2
BASIS		cc-pvtz
METHOD		rimp2
AUX_BASIS	rimp2-cc-pvtz
SOLVENT_METHOD	PCM
PURECART	11111
SYMMETRY	false
MEM_TOTAL	110000
SCF_CONVERGENCE = 6
THRESH=10
$end

$solvent
dielectric 4.90
$end
--------------------------------------------------------------

   10    -629.4002154098      5.69e-07  Convergence criterion met
 Total energy in the final basis set =     -629.4002154098
        RIMP2         total energy =      -630.5819341949 a.u.
 Total job time:  157.29s(wall), 155.36s(cpu)
        *  Thank you very much for using Q-Chem.  Have a nice day.  *
 Q-Chem 5.4, Q-Chem, Inc., Pleasanton, CA (2021)
 Q-Chem 5.4.0 for Intel X86 EM64T Linux

User input:
--------------------------------------------------------------
$molecule
0 1
C	-0.334499	-0.485421	0.013624
C	0.097301	0.262479	1.113024
C	0.789301	1.460979	0.790324
H	-0.087099	-0.056921	2.149724
C	0.899601	1.652079	-0.598876
S	0.136701	0.330679	-1.473176
C	1.333201	2.402979	1.828224
H	1.120401	2.034379	2.850324
H	0.887501	3.415779	1.739824
H	2.433201	2.523379	1.739824
C	-0.334499	-1.926121	0.013624
H	-1.398099	-1.925821	0.201024
H	-0.476699	-2.629921	-0.793176
H	-0.169999	-2.445021	0.946324
H	1.374301	2.474079	-1.147976
$end

$rem
JOBTYPE		SP
EXCHANGE	HF
CORRELATION	pRIMP2
BASIS		cc-pvtz
METHOD		rimp2
AUX_BASIS	rimp2-cc-pvtz
SOLVENT_METHOD	PCM
PURECART	11111
SYMMETRY	false
MEM_TOTAL	110000
SCF_CONVERGENCE = 6
THRESH=10
$end

$solvent
dielectric 4.90
$end
--------------------------------------------------------------

             Standard Nuclear Orientation (Angstroms)
    I     Atom           X                Y                Z
 ----------------------------------------------------------------
    1      C      -0.3344990000    -0.4854210000     0.0136240000
    2      C       0.0973010000     0.2624790000     1.1130240000
    3      C       0.7893010000     1.4609790000     0.7903240000
    4      H      -0.0870990000    -0.0569210000     2.1497240000
    5      C       0.8996010000     1.6520790000    -0.5988760000
    6      S       0.1367010000     0.3306790000    -1.4731760000
    7      C       1.3332010000     2.4029790000     1.8282240000
    8      H       1.1204010000     2.0343790000     2.8503240000
    9      H       0.8875010000     3.4157790000     1.7398240000
   10      H       2.4332010000     2.5233790000     1.7398240000
   11      C      -0.3344990000    -1.9261210000     0.0136240000
   12      H      -1.3980990000    -1.9258210000     0.2010240000
   13      H      -0.4766990000    -2.6299210000    -0.7931760000
   14      H      -0.1699990000    -2.4450210000     0.9463240000
   15      H       1.3743010000     2.4740790000    -1.1479760000
 ----------------------------------------------------------------

   10    -629.4002154098      5.69e-07  Convergence criterion met
 Total energy in the final basis set =     -629.4002154098
        RIMP2         total energy =      -630.5819341949 a.u.

                    Orbital Energies (a.u.)
 --------------------------------------------------------------

 Alpha MOs
 -- Occupied --
-91.9754 -11.2762 -11.2550 -11.2474 -11.2300 -11.2269 -11.2158  -8.9756
 -6.6565  -6.6559  -6.6553  -1.1617  -1.0546  -0.9971  -0.9408  -0.8829
 -0.7440  -0.7210  -0.6449  -0.5870  -0.5755  -0.5695  -0.5536  -0.5442
 -0.5116  -0.4941  -0.4583  -0.4474  -0.3372  -0.2868

          Ground-State Mulliken Net Atomic Charges

     Atom                 Charge (a.u.)
  ----------------------------------------
      1 C                     0.029970
      2 C                    -0.286991
      3 C                     0.049987
      4 H                     0.176638
      5 C                    -0.263845
      6 S                     0.003390
      7 C                    -0.270243
      8 H                     0.101385
      9 H                     0.107136
     10 H                     0.106569
     11 C                    -0.381685
     12 H                     0.133850
     13 H                     0.160987
     14 H                     0.140959
     15 H                     0.191892
  ----------------------------------------
  Sum of atomic charges =     0.000000

                    Cartesian Multipole Moments
 -----------------------------------------------------------------
    Charge (ESU x 10^10)
                -0.0000
    Dipole Moment (Debye)
         X       0.0024      Y      -0.4517      Z       1.6245
       Tot       1.6861
    Quadrupole Moments (Debye-Ang)
        XX     -51.9264     XY       5.3241     YY     -44.4755
        XZ       0.2000     YZ       0.1621     ZZ     -48.3880

 Total job time:  157.11s(wall), 155.22s(cpu)
        *  Thank you very much for using Q-Chem.  Have a nice day.  *
