 Q-Chem 5.4, Q-Chem, Inc., Pleasanton, CA (2021)
 Q-Chem 5.4.0 for Intel X86 EM64T Linux

User input:
--------------------------------------------------------------
$molecule
0 1
C	0.003329	-0.576312	0.011474
C	0.003329	0.287288	1.110874
C	0.003429	1.671188	0.788174
H	0.003329	-0.081512	2.147574
C	0.003429	1.891888	-0.601026
S	0.003329	0.366088	-1.475326
C	0.003429	2.758988	1.826074
H	0.003429	2.333288	2.848174
H	-0.888971	3.413288	1.737674
H	0.895829	3.413188	1.737674
C	0.003329	-2.017012	0.011474
H	-0.824071	-2.016712	0.705574
H	-0.523171	-2.720812	-0.616126
H	0.612129	-2.535912	0.736974
H	0.003429	2.841088	-1.150126
$end

$rem
JOBTYPE		SP
EXCHANGE	HF
CORRELATION	pRIMP2
BASIS		cc-pvtz
METHOD		rimp2
AUX_BASIS	rimp2-cc-pvtz
SOLVENT_METHOD	PCM
PURECART	11111
SYMMETRY	false
MEM_TOTAL	110000
SCF_CONVERGENCE = 6
THRESH=10
$end

$solvent
dielectric 4.90
$end
--------------------------------------------------------------

   10    -629.4237770864      6.06e-07  Convergence criterion met
 Total energy in the final basis set =     -629.4237770864
        RIMP2         total energy =      -630.6007056536 a.u.
 Total job time:  156.74s(wall), 154.86s(cpu)
        *  Thank you very much for using Q-Chem.  Have a nice day.  *
 Q-Chem 5.4, Q-Chem, Inc., Pleasanton, CA (2021)
 Q-Chem 5.4.0 for Intel X86 EM64T Linux

User input:
--------------------------------------------------------------
$molecule
0 1
C	0.003329	-0.576312	0.011474
C	0.003329	0.287288	1.110874
C	0.003429	1.671188	0.788174
H	0.003329	-0.081512	2.147574
C	0.003429	1.891888	-0.601026
S	0.003329	0.366088	-1.475326
C	0.003429	2.758988	1.826074
H	0.003429	2.333288	2.848174
H	-0.888971	3.413288	1.737674
H	0.895829	3.413188	1.737674
C	0.003329	-2.017012	0.011474
H	-0.824071	-2.016712	0.705574
H	-0.523171	-2.720812	-0.616126
H	0.612129	-2.535912	0.736974
H	0.003429	2.841088	-1.150126
$end

$rem
JOBTYPE		SP
EXCHANGE	HF
CORRELATION	pRIMP2
BASIS		cc-pvtz
METHOD		rimp2
AUX_BASIS	rimp2-cc-pvtz
SOLVENT_METHOD	PCM
PURECART	11111
SYMMETRY	false
MEM_TOTAL	110000
SCF_CONVERGENCE = 6
THRESH=10
$end

$solvent
dielectric 4.90
$end
--------------------------------------------------------------

             Standard Nuclear Orientation (Angstroms)
    I     Atom           X                Y                Z
 ----------------------------------------------------------------
    1      C       0.0033290000    -0.5763120000     0.0114740000
    2      C       0.0033290000     0.2872880000     1.1108740000
    3      C       0.0034290000     1.6711880000     0.7881740000
    4      H       0.0033290000    -0.0815120000     2.1475740000
    5      C       0.0034290000     1.8918880000    -0.6010260000
    6      S       0.0033290000     0.3660880000    -1.4753260000
    7      C       0.0034290000     2.7589880000     1.8260740000
    8      H       0.0034290000     2.3332880000     2.8481740000
    9      H      -0.8889710000     3.4132880000     1.7376740000
   10      H       0.8958290000     3.4131880000     1.7376740000
   11      C       0.0033290000    -2.0170120000     0.0114740000
   12      H      -0.8240710000    -2.0167120000     0.7055740000
   13      H      -0.5231710000    -2.7208120000    -0.6161260000
   14      H       0.6121290000    -2.5359120000     0.7369740000
   15      H       0.0034290000     2.8410880000    -1.1501260000
 ----------------------------------------------------------------

   10    -629.4237770864      6.06e-07  Convergence criterion met
 Total energy in the final basis set =     -629.4237770864
        RIMP2         total energy =      -630.6007056536 a.u.

                    Orbital Energies (a.u.)
 --------------------------------------------------------------

 Alpha MOs
 -- Occupied --
-91.9771 -11.2835 -11.2506 -11.2473 -11.2270 -11.2269 -11.2195  -8.9769
 -6.6578  -6.6573  -6.6567  -1.1603  -1.0552  -0.9988  -0.9400  -0.8837
 -0.7423  -0.7206  -0.6482  -0.5912  -0.5743  -0.5696  -0.5578  -0.5434
 -0.5091  -0.4888  -0.4662  -0.4493  -0.3373  -0.2934

          Ground-State Mulliken Net Atomic Charges

     Atom                 Charge (a.u.)
  ----------------------------------------
      1 C                     0.072593
      2 C                    -0.288422
      3 C                     0.039610
      4 H                     0.176396
      5 C                    -0.270970
      6 S                    -0.004153
      7 C                    -0.275216
      8 H                     0.101129
      9 H                     0.107207
     10 H                     0.107380
     11 C                    -0.389861
     12 H                     0.136880
     13 H                     0.159890
     14 H                     0.135621
     15 H                     0.191916
  ----------------------------------------
  Sum of atomic charges =     0.000000

                    Cartesian Multipole Moments
 -----------------------------------------------------------------
    Charge (ESU x 10^10)
                -0.0000
    Dipole Moment (Debye)
         X      -0.5426      Y      -0.5428      Z       1.8930
       Tot       2.0427
    Quadrupole Moments (Debye-Ang)
        XX     -54.0863     XY       1.3027     YY     -41.9741
        XZ       0.2883     YZ      -0.4866     ZZ     -48.7189

 Total job time:  157.51s(wall), 155.22s(cpu)
        *  Thank you very much for using Q-Chem.  Have a nice day.  *
