 Q-Chem 5.4, Q-Chem, Inc., Pleasanton, CA (2021)
 Q-Chem 5.4.0 for Intel X86 EM64T Linux

User input:
--------------------------------------------------------------
$molecule
0 1
C	-0.524133	-0.333972	0.016960
C	0.137467	0.221128	1.116360
C	1.197567	1.110628	0.793660
H	-0.145033	-0.015972	2.153060
C	1.366667	1.252428	-0.595540
S	0.197767	0.271728	-1.469840
C	2.030867	1.809828	1.831560
H	1.704767	1.536228	2.853660
H	1.958467	2.914028	1.743160
H	3.105667	1.546728	1.743160
C	-0.524133	-1.774672	0.016960
H	0.411267	-1.774872	-0.522940
H	-0.933633	-2.478472	-0.692540
H	-0.050533	-2.293572	0.837160
H	2.093767	1.862628	-1.144640
$end

$rem
JOBTYPE		SP
EXCHANGE	HF
CORRELATION	pRIMP2
BASIS		cc-pvtz
METHOD		rimp2
AUX_BASIS	rimp2-cc-pvtz
SOLVENT_METHOD	PCM
PURECART	11111
SYMMETRY	false
MEM_TOTAL	110000
SCF_CONVERGENCE = 6
THRESH=10
$end

$solvent
dielectric 4.90
$end
--------------------------------------------------------------

             Standard Nuclear Orientation (Angstroms)
    I     Atom           X                Y                Z
 ----------------------------------------------------------------
    1      C      -0.5241330000    -0.3339720000     0.0169600000
    2      C       0.1374670000     0.2211280000     1.1163600000
    3      C       1.1975670000     1.1106280000     0.7936600000
    4      H      -0.1450330000    -0.0159720000     2.1530600000
    5      C       1.3666670000     1.2524280000    -0.5955400000
    6      S       0.1977670000     0.2717280000    -1.4698400000
    7      C       2.0308670000     1.8098280000     1.8315600000
    8      H       1.7047670000     1.5362280000     2.8536600000
    9      H       1.9584670000     2.9140280000     1.7431600000
   10      H       3.1056670000     1.5467280000     1.7431600000
   11      C      -0.5241330000    -1.7746720000     0.0169600000
   12      H       0.4112670000    -1.7748720000    -0.5229400000
   13      H      -0.9336330000    -2.4784720000    -0.6925400000
   14      H      -0.0505330000    -2.2935720000     0.8371600000
   15      H       2.0937670000     1.8626280000    -1.1446400000
 ----------------------------------------------------------------

   10    -629.3710790219      5.70e-07  Convergence criterion met
 Total energy in the final basis set =     -629.3710790219
        RIMP2         total energy =      -630.5579892823 a.u.

                    Orbital Energies (a.u.)
 --------------------------------------------------------------

 Alpha MOs
 -- Occupied --
-91.9710 -11.2700 -11.2654 -11.2492 -11.2411 -11.2285 -11.2134  -8.9724
 -6.6533  -6.6525  -6.6521  -1.1723  -1.0583  -0.9958  -0.9412  -0.8796
 -0.7511  -0.7258  -0.6441  -0.5889  -0.5843  -0.5658  -0.5519  -0.5469
 -0.5111  -0.4923  -0.4608  -0.4382  -0.3399  -0.2899

          Ground-State Mulliken Net Atomic Charges

     Atom                 Charge (a.u.)
  ----------------------------------------
      1 C                    -0.013656
      2 C                    -0.226686
      3 C                     0.019117
      4 H                     0.182112
      5 C                    -0.223464
      6 S                    -0.006601
      7 C                    -0.268640
      8 H                     0.101879
      9 H                     0.107927
     10 H                     0.106063
     11 C                    -0.370263
     12 H                     0.133172
     13 H                     0.134735
     14 H                     0.129202
     15 H                     0.195105
  ----------------------------------------
  Sum of atomic charges =     0.000000

                    Cartesian Multipole Moments
 -----------------------------------------------------------------
    Charge (ESU x 10^10)
                -0.0000
    Dipole Moment (Debye)
         X       2.1780      Y      -0.1649      Z       1.4156
       Tot       2.6029
    Quadrupole Moments (Debye-Ang)
        XX     -50.0227     XY       3.7568     YY     -48.1340
        XZ       0.2872     YZ       0.8516     ZZ     -48.2021

 Total job time:  162.25s(wall), 160.67s(cpu)
        *  Thank you very much for using Q-Chem.  Have a nice day.  *
