 Q-Chem 5.4, Q-Chem, Inc., Pleasanton, CA (2021)
 Q-Chem 5.4.0 for Intel X86 EM64T Linux

User input:
--------------------------------------------------------------
$molecule
0 1
C	-0.171212	-0.553191	0.012833
C	0.052288	0.281009	1.112233
C	0.410488	1.617709	0.789533
H	-0.043112	-0.075291	2.148933
C	0.467688	1.830809	-0.599667
S	0.072688	0.357109	-1.473967
C	0.692088	2.668409	1.827433
H	0.581888	2.257309	2.849533
H	-0.000512	3.531409	1.739033
H	1.723388	3.069409	1.739033
C	-0.171212	-1.993891	0.012833
H	-1.186112	-1.993591	0.382133
H	-0.451312	-2.697691	-0.756967
H	0.152688	-2.512791	0.902833
H	0.713388	2.747709	-1.148767
$end

$rem
JOBTYPE		SP
EXCHANGE	HF
CORRELATION	pRIMP2
BASIS		cc-pvtz
METHOD		rimp2
AUX_BASIS	rimp2-cc-pvtz
SOLVENT_METHOD	PCM
PURECART	11111
SYMMETRY	false
MEM_TOTAL	110000
SCF_CONVERGENCE = 6
THRESH=10
$end

$solvent
dielectric 4.90
$end
--------------------------------------------------------------

             Standard Nuclear Orientation (Angstroms)
    I     Atom           X                Y                Z
 ----------------------------------------------------------------
    1      C      -0.1712120000    -0.5531910000     0.0128330000
    2      C       0.0522880000     0.2810090000     1.1122330000
    3      C       0.4104880000     1.6177090000     0.7895330000
    4      H      -0.0431120000    -0.0752910000     2.1489330000
    5      C       0.4676880000     1.8308090000    -0.5996670000
    6      S       0.0726880000     0.3571090000    -1.4739670000
    7      C       0.6920880000     2.6684090000     1.8274330000
    8      H       0.5818880000     2.2573090000     2.8495330000
    9      H      -0.0005120000     3.5314090000     1.7390330000
   10      H       1.7233880000     3.0694090000     1.7390330000
   11      C      -0.1712120000    -1.9938910000     0.0128330000
   12      H      -1.1861120000    -1.9935910000     0.3821330000
   13      H      -0.4513120000    -2.6976910000    -0.7569670000
   14      H       0.1526880000    -2.5127910000     0.9028330000
   15      H       0.7133880000     2.7477090000    -1.1487670000
 ----------------------------------------------------------------

   10    -629.4178602044      6.42e-07  Convergence criterion met
 Total energy in the final basis set =     -629.4178602044
        RIMP2         total energy =      -630.5955071315 a.u.

                    Orbital Energies (a.u.)
 --------------------------------------------------------------

 Alpha MOs
 -- Occupied --
-91.9767 -11.2830 -11.2503 -11.2472 -11.2266 -11.2262 -11.2197  -8.9766
 -6.6576  -6.6570  -6.6564  -1.1603  -1.0554  -0.9979  -0.9408  -0.8833
 -0.7430  -0.7198  -0.6471  -0.5893  -0.5740  -0.5701  -0.5556  -0.5443
 -0.5095  -0.4933  -0.4619  -0.4520  -0.3376  -0.2890

          Ground-State Mulliken Net Atomic Charges

     Atom                 Charge (a.u.)
  ----------------------------------------
      1 C                     0.064874
      2 C                    -0.313126
      3 C                     0.053580
      4 H                     0.175161
      5 C                    -0.274485
      6 S                     0.001614
      7 C                    -0.273584
      8 H                     0.101217
      9 H                     0.107231
     10 H                     0.107334
     11 C                    -0.384604
     12 H                     0.139100
     13 H                     0.161990
     14 H                     0.142386
     15 H                     0.191312
  ----------------------------------------
  Sum of atomic charges =     0.000000

                    Cartesian Multipole Moments
 -----------------------------------------------------------------
    Charge (ESU x 10^10)
                -0.0000
    Dipole Moment (Debye)
         X      -0.3921      Y      -0.6391      Z       1.6883
       Tot       1.8473
    Quadrupole Moments (Debye-Ang)
        XX     -53.5329     XY       3.7422     YY     -42.5214
        XZ       0.2524     YZ      -0.0238     ZZ     -48.5797

 Total job time:  155.64s(wall), 154.64s(cpu)
        *  Thank you very much for using Q-Chem.  Have a nice day.  *
