 Q-Chem 5.4, Q-Chem, Inc., Pleasanton, CA (2021)
 Q-Chem 5.4.0 for Intel X86 EM64T Linux

User input:
--------------------------------------------------------------
$molecule
0 1
C	-0.523557	-0.333974	0.017955
C	0.138043	0.221126	1.117355
C	1.198143	1.110626	0.794655
H	-0.144457	-0.015974	2.154055
C	1.367243	1.252426	-0.594545
S	0.198343	0.271726	-1.468845
C	2.031443	1.809826	1.832555
H	1.705343	1.536226	2.854655
H	1.959043	2.914026	1.744155
H	3.106243	1.546726	1.744155
C	-0.523557	-1.774674	0.017955
H	0.411843	-1.774374	-0.521945
H	-0.114057	-2.478474	0.727455
H	-0.997157	-2.293574	-0.802245
H	2.094343	1.862626	-1.143645
$end

$rem
JOBTYPE		SP
EXCHANGE	HF
CORRELATION	pRIMP2
BASIS		cc-pvtz
METHOD		rimp2
AUX_BASIS	rimp2-cc-pvtz
SOLVENT_METHOD	PCM
PURECART	11111
SYMMETRY	false
MEM_TOTAL	110000
SCF_CONVERGENCE = 6
THRESH=10
$end

$solvent
dielectric 4.90
$end
--------------------------------------------------------------

             Standard Nuclear Orientation (Angstroms)
    I     Atom           X                Y                Z
 ----------------------------------------------------------------
    1      C      -0.5235570000    -0.3339740000     0.0179550000
    2      C       0.1380430000     0.2211260000     1.1173550000
    3      C       1.1981430000     1.1106260000     0.7946550000
    4      H      -0.1444570000    -0.0159740000     2.1540550000
    5      C       1.3672430000     1.2524260000    -0.5945450000
    6      S       0.1983430000     0.2717260000    -1.4688450000
    7      C       2.0314430000     1.8098260000     1.8325550000
    8      H       1.7053430000     1.5362260000     2.8546550000
    9      H       1.9590430000     2.9140260000     1.7441550000
   10      H       3.1062430000     1.5467260000     1.7441550000
   11      C      -0.5235570000    -1.7746740000     0.0179550000
   12      H       0.4118430000    -1.7743740000    -0.5219450000
   13      H      -0.1140570000    -2.4784740000     0.7274550000
   14      H      -0.9971570000    -2.2935740000    -0.8022450000
   15      H       2.0943430000     1.8626260000    -1.1436450000
 ----------------------------------------------------------------

   10    -629.3698906202      5.05e-07  Convergence criterion met
 Total energy in the final basis set =     -629.3698906202
        RIMP2         total energy =      -630.5566813265 a.u.

                    Orbital Energies (a.u.)
 --------------------------------------------------------------

 Alpha MOs
 -- Occupied --
-91.9716 -11.2706 -11.2640 -11.2491 -11.2409 -11.2284 -11.2132  -8.9731
 -6.6539  -6.6532  -6.6527  -1.1721  -1.0582  -0.9952  -0.9422  -0.8793
 -0.7513  -0.7253  -0.6465  -0.5852  -0.5845  -0.5651  -0.5532  -0.5468
 -0.5132  -0.4889  -0.4611  -0.4389  -0.3403  -0.2896

          Ground-State Mulliken Net Atomic Charges

     Atom                 Charge (a.u.)
  ----------------------------------------
      1 C                    -0.020855
      2 C                    -0.218101
      3 C                     0.015251
      4 H                     0.181363
      5 C                    -0.221920
      6 S                    -0.006257
      7 C                    -0.269139
      8 H                     0.101905
      9 H                     0.107857
     10 H                     0.105951
     11 C                    -0.371240
     12 H                     0.133659
     13 H                     0.150288
     14 H                     0.115647
     15 H                     0.195591
  ----------------------------------------
  Sum of atomic charges =     0.000000

                    Cartesian Multipole Moments
 -----------------------------------------------------------------
    Charge (ESU x 10^10)
                -0.0000
    Dipole Moment (Debye)
         X       2.2059      Y      -0.1342      Z       1.4114
       Tot       2.6222
    Quadrupole Moments (Debye-Ang)
        XX     -50.0197     XY       3.6389     YY     -48.0738
        XZ       0.2383     YZ       0.5682     ZZ     -48.2201

 Total job time:  162.73s(wall), 161.53s(cpu)
        *  Thank you very much for using Q-Chem.  Have a nice day.  *
