 Q-Chem 5.4, Q-Chem, Inc., Pleasanton, CA (2021)
 Q-Chem 5.4.0 for Intel X86 EM64T Linux

User input:
--------------------------------------------------------------
$molecule
0 1
C	-0.234934	-0.535397	0.011118
C	0.060466	0.276103	1.110518
C	0.533766	1.576503	0.787818
H	-0.065634	-0.070397	2.147218
C	0.609266	1.783903	-0.601382
S	0.087366	0.350203	-1.475682
C	0.905866	2.598703	1.825718
H	0.760266	2.198703	2.847818
H	0.291066	3.518703	1.737318
H	1.968266	2.908303	1.737318
C	-0.234934	-1.976097	0.011118
H	0.304966	-1.975797	0.946518
H	-0.944434	-2.679897	0.420618
H	0.585266	-2.494997	-0.462482
H	0.933966	2.675903	-1.150482
$end

$rem
JOBTYPE		SP
EXCHANGE	HF
CORRELATION	pRIMP2
BASIS		cc-pvtz
METHOD		rimp2
AUX_BASIS	rimp2-cc-pvtz
SOLVENT_METHOD	PCM
PURECART	11111
SYMMETRY	false
MEM_TOTAL	110000
SCF_CONVERGENCE = 6
THRESH=10
$end

$solvent
dielectric 4.90
$end
--------------------------------------------------------------

   10    -629.4150938577      5.13e-07  Convergence criterion met
 Total energy in the final basis set =     -629.4150938577
        RIMP2         total energy =      -630.5944675258 a.u.
 Total job time:  158.88s(wall), 157.34s(cpu)
        *  Thank you very much for using Q-Chem.  Have a nice day.  *
 Q-Chem 5.4, Q-Chem, Inc., Pleasanton, CA (2021)
 Q-Chem 5.4.0 for Intel X86 EM64T Linux

User input:
--------------------------------------------------------------
$molecule
0 1
C	-0.234934	-0.535397	0.011118
C	0.060466	0.276103	1.110518
C	0.533766	1.576503	0.787818
H	-0.065634	-0.070397	2.147218
C	0.609266	1.783903	-0.601382
S	0.087366	0.350203	-1.475682
C	0.905866	2.598703	1.825718
H	0.760266	2.198703	2.847818
H	0.291066	3.518703	1.737318
H	1.968266	2.908303	1.737318
C	-0.234934	-1.976097	0.011118
H	0.304966	-1.975797	0.946518
H	-0.944434	-2.679897	0.420618
H	0.585266	-2.494997	-0.462482
H	0.933966	2.675903	-1.150482
$end

$rem
JOBTYPE		SP
EXCHANGE	HF
CORRELATION	pRIMP2
BASIS		cc-pvtz
METHOD		rimp2
AUX_BASIS	rimp2-cc-pvtz
SOLVENT_METHOD	PCM
PURECART	11111
SYMMETRY	false
MEM_TOTAL	110000
SCF_CONVERGENCE = 6
THRESH=10
$end

$solvent
dielectric 4.90
$end
--------------------------------------------------------------

             Standard Nuclear Orientation (Angstroms)
    I     Atom           X                Y                Z
 ----------------------------------------------------------------
    1      C      -0.2349340000    -0.5353970000     0.0111180000
    2      C       0.0604660000     0.2761030000     1.1105180000
    3      C       0.5337660000     1.5765030000     0.7878180000
    4      H      -0.0656340000    -0.0703970000     2.1472180000
    5      C       0.6092660000     1.7839030000    -0.6013820000
    6      S       0.0873660000     0.3502030000    -1.4756820000
    7      C       0.9058660000     2.5987030000     1.8257180000
    8      H       0.7602660000     2.1987030000     2.8478180000
    9      H       0.2910660000     3.5187030000     1.7373180000
   10      H       1.9682660000     2.9083030000     1.7373180000
   11      C      -0.2349340000    -1.9760970000     0.0111180000
   12      H       0.3049660000    -1.9757970000     0.9465180000
   13      H      -0.9444340000    -2.6798970000     0.4206180000
   14      H       0.5852660000    -2.4949970000    -0.4624820000
   15      H       0.9339660000     2.6759030000    -1.1504820000
 ----------------------------------------------------------------

   10    -629.4150938577      5.13e-07  Convergence criterion met
 Total energy in the final basis set =     -629.4150938577
        RIMP2         total energy =      -630.5944675258 a.u.

                    Orbital Energies (a.u.)
 --------------------------------------------------------------

 Alpha MOs
 -- Occupied --
-91.9768 -11.2775 -11.2562 -11.2472 -11.2315 -11.2273 -11.2156  -8.9767
 -6.6577  -6.6571  -6.6566  -1.1622  -1.0544  -0.9991  -0.9389  -0.8836
 -0.7426  -0.7238  -0.6480  -0.5908  -0.5761  -0.5670  -0.5587  -0.5426
 -0.5102  -0.4823  -0.4682  -0.4443  -0.3363  -0.2988

          Ground-State Mulliken Net Atomic Charges

     Atom                 Charge (a.u.)
  ----------------------------------------
      1 C                     0.046122
      2 C                    -0.266118
      3 C                     0.033006
      4 H                     0.176071
      5 C                    -0.254911
      6 S                    -0.003341
      7 C                    -0.272250
      8 H                     0.101203
      9 H                     0.107266
     10 H                     0.106751
     11 C                    -0.383237
     12 H                     0.134402
     13 H                     0.146044
     14 H                     0.136395
     15 H                     0.192597
  ----------------------------------------
  Sum of atomic charges =     0.000000

                    Cartesian Multipole Moments
 -----------------------------------------------------------------
    Charge (ESU x 10^10)
                -0.0000
    Dipole Moment (Debye)
         X       0.8508      Y      -0.1975      Z       2.0505
       Tot       2.2288
    Quadrupole Moments (Debye-Ang)
        XX     -53.0980     XY       2.1308     YY     -43.4390
        XZ      -0.3020     YZ      -0.9982     ZZ     -48.7012

 Total job time:  156.65s(wall), 155.62s(cpu)
        *  Thank you very much for using Q-Chem.  Have a nice day.  *
