 Q-Chem 5.4, Q-Chem, Inc., Pleasanton, CA (2021)
 Q-Chem 5.4.0 for Intel X86 EM64T Linux

User input:
--------------------------------------------------------------
$molecule
0 1
C	-0.334299	-0.485419	0.014756
C	0.097501	0.262481	1.114156
C	0.789501	1.460981	0.791456
H	-0.086899	-0.056919	2.150856
C	0.899801	1.652081	-0.597744
S	0.136901	0.330681	-1.472044
C	1.333401	2.402981	1.829356
H	1.120601	2.034381	2.851456
H	0.887701	3.415781	1.740956
H	2.433401	2.523381	1.740956
C	-0.334299	-1.926119	0.014756
H	-1.397899	-1.926319	0.202156
H	-0.192099	-2.629919	0.821556
H	-0.498799	-2.445019	-0.917944
H	1.374501	2.474081	-1.146844
$end

$rem
JOBTYPE		SP
EXCHANGE	HF
CORRELATION	pRIMP2
BASIS		cc-pvtz
METHOD		rimp2
AUX_BASIS	rimp2-cc-pvtz
SOLVENT_METHOD	PCM
PURECART	11111
SYMMETRY	false
MEM_TOTAL	110000
SCF_CONVERGENCE = 6
THRESH=10
$end

$solvent
dielectric 4.90
$end
--------------------------------------------------------------

   10    -629.3997630144      5.70e-07  Convergence criterion met
 Total energy in the final basis set =     -629.3997630144
        RIMP2         total energy =      -630.5813936618 a.u.
 Total job time:  157.90s(wall), 155.06s(cpu)
        *  Thank you very much for using Q-Chem.  Have a nice day.  *
 Q-Chem 5.4, Q-Chem, Inc., Pleasanton, CA (2021)
 Q-Chem 5.4.0 for Intel X86 EM64T Linux

User input:
--------------------------------------------------------------
$molecule
0 1
C	-0.334299	-0.485419	0.014756
C	0.097501	0.262481	1.114156
C	0.789501	1.460981	0.791456
H	-0.086899	-0.056919	2.150856
C	0.899801	1.652081	-0.597744
S	0.136901	0.330681	-1.472044
C	1.333401	2.402981	1.829356
H	1.120601	2.034381	2.851456
H	0.887701	3.415781	1.740956
H	2.433401	2.523381	1.740956
C	-0.334299	-1.926119	0.014756
H	-1.397899	-1.926319	0.202156
H	-0.192099	-2.629919	0.821556
H	-0.498799	-2.445019	-0.917944
H	1.374501	2.474081	-1.146844
$end

$rem
JOBTYPE		SP
EXCHANGE	HF
CORRELATION	pRIMP2
BASIS		cc-pvtz
METHOD		rimp2
AUX_BASIS	rimp2-cc-pvtz
SOLVENT_METHOD	PCM
PURECART	11111
SYMMETRY	false
MEM_TOTAL	110000
SCF_CONVERGENCE = 6
THRESH=10
$end

$solvent
dielectric 4.90
$end
--------------------------------------------------------------

             Standard Nuclear Orientation (Angstroms)
    I     Atom           X                Y                Z
 ----------------------------------------------------------------
    1      C      -0.3342990000    -0.4854190000     0.0147560000
    2      C       0.0975010000     0.2624810000     1.1141560000
    3      C       0.7895010000     1.4609810000     0.7914560000
    4      H      -0.0868990000    -0.0569190000     2.1508560000
    5      C       0.8998010000     1.6520810000    -0.5977440000
    6      S       0.1369010000     0.3306810000    -1.4720440000
    7      C       1.3334010000     2.4029810000     1.8293560000
    8      H       1.1206010000     2.0343810000     2.8514560000
    9      H       0.8877010000     3.4157810000     1.7409560000
   10      H       2.4334010000     2.5233810000     1.7409560000
   11      C      -0.3342990000    -1.9261190000     0.0147560000
   12      H      -1.3978990000    -1.9263190000     0.2021560000
   13      H      -0.1920990000    -2.6299190000     0.8215560000
   14      H      -0.4987990000    -2.4450190000    -0.9179440000
   15      H       1.3745010000     2.4740810000    -1.1468440000
 ----------------------------------------------------------------

   10    -629.3997630144      5.70e-07  Convergence criterion met
 Total energy in the final basis set =     -629.3997630144
        RIMP2         total energy =      -630.5813936618 a.u.

                    Orbital Energies (a.u.)
 --------------------------------------------------------------

 Alpha MOs
 -- Occupied --
-91.9764 -11.2749 -11.2556 -11.2473 -11.2295 -11.2267 -11.2156  -8.9764
 -6.6574  -6.6567  -6.6562  -1.1616  -1.0545  -0.9966  -0.9416  -0.8827
 -0.7443  -0.7209  -0.6469  -0.5845  -0.5743  -0.5665  -0.5559  -0.5444
 -0.5117  -0.4939  -0.4585  -0.4487  -0.3373  -0.2870

          Ground-State Mulliken Net Atomic Charges

     Atom                 Charge (a.u.)
  ----------------------------------------
      1 C                     0.024119
      2 C                    -0.283600
      3 C                     0.049637
      4 H                     0.176065
      5 C                    -0.263258
      6 S                     0.005911
      7 C                    -0.270571
      8 H                     0.101435
      9 H                     0.107100
     10 H                     0.106432
     11 C                    -0.378648
     12 H                     0.133775
     13 H                     0.161976
     14 H                     0.137222
     15 H                     0.192404
  ----------------------------------------
  Sum of atomic charges =     0.000000

                    Cartesian Multipole Moments
 -----------------------------------------------------------------
    Charge (ESU x 10^10)
                -0.0000
    Dipole Moment (Debye)
         X       0.0230      Y      -0.3969      Z       1.6041
       Tot       1.6527
    Quadrupole Moments (Debye-Ang)
        XX     -51.9335     XY       5.2755     YY     -44.5156
        XZ       0.1467     YZ      -0.1447     ZZ     -48.3453

 Total job time:  156.21s(wall), 155.27s(cpu)
        *  Thank you very much for using Q-Chem.  Have a nice day.  *
