 Q-Chem 5.4, Q-Chem, Inc., Pleasanton, CA (2021)
 Q-Chem 5.4.0 for Intel X86 EM64T Linux

User input:
--------------------------------------------------------------
$molecule
0 1
C	-0.339453	-0.485419	0.010154
C	0.092347	0.262481	1.109554
C	0.784347	1.460981	0.786854
H	-0.092053	-0.056919	2.146254
C	0.894647	1.652081	-0.602346
S	0.131747	0.330681	-1.476646
C	1.328247	2.402981	1.824754
H	1.115447	2.034381	2.846854
H	0.882547	3.415781	1.736354
H	2.428247	2.523381	1.736354
C	-0.339453	-1.926119	0.010154
H	-0.152053	-1.926319	1.073754
H	0.467347	-2.629919	-0.132046
H	-1.272153	-2.445019	0.174654
H	1.369347	2.474081	-1.151446
$end

$rem
JOBTYPE		SP
EXCHANGE	HF
CORRELATION	pRIMP2
BASIS		cc-pvtz
METHOD		rimp2
AUX_BASIS	rimp2-cc-pvtz
SOLVENT_METHOD	PCM
PURECART	11111
SYMMETRY	false
MEM_TOTAL	110000
SCF_CONVERGENCE = 6
THRESH=10
$end

$solvent
dielectric 4.90
$end
--------------------------------------------------------------

             Standard Nuclear Orientation (Angstroms)
    I     Atom           X                Y                Z
 ----------------------------------------------------------------
    1      C      -0.3394530000    -0.4854190000     0.0101540000
    2      C       0.0923470000     0.2624810000     1.1095540000
    3      C       0.7843470000     1.4609810000     0.7868540000
    4      H      -0.0920530000    -0.0569190000     2.1462540000
    5      C       0.8946470000     1.6520810000    -0.6023460000
    6      S       0.1317470000     0.3306810000    -1.4766460000
    7      C       1.3282470000     2.4029810000     1.8247540000
    8      H       1.1154470000     2.0343810000     2.8468540000
    9      H       0.8825470000     3.4157810000     1.7363540000
   10      H       2.4282470000     2.5233810000     1.7363540000
   11      C      -0.3394530000    -1.9261190000     0.0101540000
   12      H      -0.1520530000    -1.9263190000     1.0737540000
   13      H       0.4673470000    -2.6299190000    -0.1320460000
   14      H      -1.2721530000    -2.4450190000     0.1746540000
   15      H       1.3693470000     2.4740810000    -1.1514460000
 ----------------------------------------------------------------

   10    -629.4036352579      5.12e-07  Convergence criterion met
 Total energy in the final basis set =     -629.4036352579
        RIMP2         total energy =      -630.5860513707 a.u.

                    Orbital Energies (a.u.)
 --------------------------------------------------------------

 Alpha MOs
 -- Occupied --
-91.9747 -11.2696 -11.2627 -11.2474 -11.2381 -11.2278 -11.2124  -8.9750
 -6.6559  -6.6552  -6.6548  -1.1638  -1.0538  -0.9997  -0.9377  -0.8840
 -0.7431  -0.7266  -0.6468  -0.5890  -0.5795  -0.5699  -0.5563  -0.5419
 -0.5140  -0.4744  -0.4682  -0.4361  -0.3360  -0.3037

          Ground-State Mulliken Net Atomic Charges

     Atom                 Charge (a.u.)
  ----------------------------------------
      1 C                     0.013408
      2 C                    -0.249088
      3 C                     0.032161
      4 H                     0.176100
      5 C                    -0.239995
      6 S                    -0.001921
      7 C                    -0.270601
      8 H                     0.101284
      9 H                     0.107007
     10 H                     0.106483
     11 C                    -0.362253
     12 H                     0.122011
     13 H                     0.153511
     14 H                     0.118614
     15 H                     0.193279
  ----------------------------------------
  Sum of atomic charges =     0.000000

                    Cartesian Multipole Moments
 -----------------------------------------------------------------
    Charge (ESU x 10^10)
                -0.0000
    Dipole Moment (Debye)
         X       1.0100      Y       0.1010      Z       2.1844
       Tot       2.4087
    Quadrupole Moments (Debye-Ang)
        XX     -51.7893     XY       3.4194     YY     -44.8568
        XZ      -0.2541     YZ      -1.0656     ZZ     -48.7263

 Total job time:  159.73s(wall), 156.91s(cpu)
        *  Thank you very much for using Q-Chem.  Have a nice day.  *
