 Q-Chem 5.4, Q-Chem, Inc., Pleasanton, CA (2021)
 Q-Chem 5.4.0 for Intel X86 EM64T Linux

User input:
--------------------------------------------------------------
$molecule
0 1
C	-0.437160	-0.417594	0.010276
C	0.117940	0.243906	1.109676
C	1.007540	1.304106	0.786976
H	-0.119060	-0.038594	2.146376
C	1.149440	1.473106	-0.602224
S	0.168640	0.304306	-1.476524
C	1.706740	2.137306	1.824876
H	1.433140	1.811306	2.846976
H	1.443740	3.212106	1.736476
H	2.810940	2.064906	1.736476
C	-0.437160	-1.858294	0.010276
H	-0.067860	-1.858494	1.025176
H	0.332640	-2.562094	-0.269824
H	-1.327160	-2.377194	0.334176
H	1.759540	2.200206	-1.151324
$end

$rem
JOBTYPE		SP
EXCHANGE	HF
CORRELATION	pRIMP2
BASIS		cc-pvtz
METHOD		rimp2
AUX_BASIS	rimp2-cc-pvtz
SOLVENT_METHOD	PCM
PURECART	11111
SYMMETRY	false
MEM_TOTAL	110000
SCF_CONVERGENCE = 6
THRESH=10
$end

$solvent
dielectric 4.90
$end
--------------------------------------------------------------

             Standard Nuclear Orientation (Angstroms)
    I     Atom           X                Y                Z
 ----------------------------------------------------------------
    1      C      -0.4371600000    -0.4175940000     0.0102760000
    2      C       0.1179400000     0.2439060000     1.1096760000
    3      C       1.0075400000     1.3041060000     0.7869760000
    4      H      -0.1190600000    -0.0385940000     2.1463760000
    5      C       1.1494400000     1.4731060000    -0.6022240000
    6      S       0.1686400000     0.3043060000    -1.4765240000
    7      C       1.7067400000     2.1373060000     1.8248760000
    8      H       1.4331400000     1.8113060000     2.8469760000
    9      H       1.4437400000     3.2121060000     1.7364760000
   10      H       2.8109400000     2.0649060000     1.7364760000
   11      C      -0.4371600000    -1.8582940000     0.0102760000
   12      H      -0.0678600000    -1.8584940000     1.0251760000
   13      H       0.3326400000    -2.5620940000    -0.2698240000
   14      H      -1.3271600000    -2.3771940000     0.3341760000
   15      H       1.7595400000     2.2002060000    -1.1513240000
 ----------------------------------------------------------------

   10    -629.3854200354      5.33e-07  Convergence criterion met
 Total energy in the final basis set =     -629.3854200354
        RIMP2         total energy =      -630.5713994164 a.u.

                    Orbital Energies (a.u.)
 --------------------------------------------------------------

 Alpha MOs
 -- Occupied --
-91.9756 -11.2662 -11.2643 -11.2478 -11.2400 -11.2281 -11.2096  -8.9758
 -6.6567  -6.6560  -6.6556  -1.1665  -1.0543  -0.9999  -0.9361  -0.8834
 -0.7440  -0.7283  -0.6453  -0.5883  -0.5799  -0.5717  -0.5549  -0.5424
 -0.5156  -0.4694  -0.4664  -0.4386  -0.3336  -0.3009

          Ground-State Mulliken Net Atomic Charges

     Atom                 Charge (a.u.)
  ----------------------------------------
      1 C                    -0.016098
      2 C                    -0.217209
      3 C                     0.017956
      4 H                     0.176630
      5 C                    -0.229269
      6 S                     0.004320
      7 C                    -0.269749
      8 H                     0.101307
      9 H                     0.107055
     10 H                     0.105687
     11 C                    -0.371320
     12 H                     0.127785
     13 H                     0.155380
     14 H                     0.113860
     15 H                     0.193665
  ----------------------------------------
  Sum of atomic charges =     0.000000

                    Cartesian Multipole Moments
 -----------------------------------------------------------------
    Charge (ESU x 10^10)
                -0.0000
    Dipole Moment (Debye)
         X       1.5160      Y       0.1274      Z       2.1733
       Tot       2.6529
    Quadrupole Moments (Debye-Ang)
        XX     -50.7173     XY       3.7244     YY     -46.6456
        XZ      -0.4171     YZ      -0.9820     ZZ     -48.4561

 Total job time:  159.41s(wall), 157.80s(cpu)
        *  Thank you very much for using Q-Chem.  Have a nice day.  *
