 Q-Chem 5.4, Q-Chem, Inc., Pleasanton, CA (2021)
 Q-Chem 5.4.0 for Intel X86 EM64T Linux

User input:
--------------------------------------------------------------
$molecule
0 1
C	-0.288103	-0.512746	0.010354
C	0.076897	0.269954	1.109754
C	0.661797	1.524154	0.787054
H	-0.079003	-0.064346	2.146454
C	0.755097	1.724154	-0.602146
S	0.110197	0.341354	-1.476446
C	1.121497	2.509954	1.824954
H	0.941597	2.124254	2.847054
H	0.589197	3.480154	1.736554
H	2.206797	2.725854	1.736554
C	-0.288103	-1.953446	0.010354
H	-0.100703	-1.953146	1.073954
H	-1.094903	-2.657246	0.152554
H	0.644597	-2.472346	-0.154146
H	1.156197	2.584454	-1.151246
$end

$rem
JOBTYPE		SP
EXCHANGE	HF
CORRELATION	pRIMP2
BASIS		cc-pvtz
METHOD		rimp2
AUX_BASIS	rimp2-cc-pvtz
SOLVENT_METHOD	PCM
PURECART	11111
SYMMETRY	false
MEM_TOTAL	110000
SCF_CONVERGENCE = 6
THRESH=10
$end

$solvent
dielectric 4.90
$end
--------------------------------------------------------------

             Standard Nuclear Orientation (Angstroms)
    I     Atom           X                Y                Z
 ----------------------------------------------------------------
    1      C      -0.2881030000    -0.5127460000     0.0103540000
    2      C       0.0768970000     0.2699540000     1.1097540000
    3      C       0.6617970000     1.5241540000     0.7870540000
    4      H      -0.0790030000    -0.0643460000     2.1464540000
    5      C       0.7550970000     1.7241540000    -0.6021460000
    6      S       0.1101970000     0.3413540000    -1.4764460000
    7      C       1.1214970000     2.5099540000     1.8249540000
    8      H       0.9415970000     2.1242540000     2.8470540000
    9      H       0.5891970000     3.4801540000     1.7365540000
   10      H       2.2067970000     2.7258540000     1.7365540000
   11      C      -0.2881030000    -1.9534460000     0.0103540000
   12      H      -0.1007030000    -1.9531460000     1.0739540000
   13      H      -1.0949030000    -2.6572460000     0.1525540000
   14      H       0.6445970000    -2.4723460000    -0.1541460000
   15      H       1.1561970000     2.5844540000    -1.1512460000
 ----------------------------------------------------------------

   10    -629.4120354927      4.93e-07  Convergence criterion met
 Total energy in the final basis set =     -629.4120354927
        RIMP2         total energy =      -630.5926275668 a.u.

                    Orbital Energies (a.u.)
 --------------------------------------------------------------

 Alpha MOs
 -- Occupied --
-91.9748 -11.2734 -11.2604 -11.2472 -11.2362 -11.2277 -11.2143  -8.9750
 -6.6559  -6.6553  -6.6548  -1.1630  -1.0541  -0.9996  -0.9383  -0.8840
 -0.7428  -0.7257  -0.6471  -0.5918  -0.5783  -0.5667  -0.5584  -0.5420
 -0.5118  -0.4798  -0.4682  -0.4373  -0.3367  -0.3036

          Ground-State Mulliken Net Atomic Charges

     Atom                 Charge (a.u.)
  ----------------------------------------
      1 C                     0.034224
      2 C                    -0.263325
      3 C                     0.036224
      4 H                     0.176291
      5 C                    -0.245860
      6 S                    -0.004794
      7 C                    -0.271067
      8 H                     0.101242
      9 H                     0.107055
     10 H                     0.106788
     11 C                    -0.367803
     12 H                     0.122765
     13 H                     0.141198
     14 H                     0.133969
     15 H                     0.193094
  ----------------------------------------
  Sum of atomic charges =     0.000000

                    Cartesian Multipole Moments
 -----------------------------------------------------------------
    Charge (ESU x 10^10)
                -0.0000
    Dipole Moment (Debye)
         X       0.8358      Y       0.0042      Z       2.1635
       Tot       2.3193
    Quadrupole Moments (Debye-Ang)
        XX     -52.3475     XY       3.2104     YY     -44.0730
        XZ      -0.2222     YZ      -1.1028     ZZ     -48.8059

 Total job time:  157.84s(wall), 156.57s(cpu)
        *  Thank you very much for using Q-Chem.  Have a nice day.  *
