 Q-Chem 5.4, Q-Chem, Inc., Pleasanton, CA (2021)
 Q-Chem 5.4.0 for Intel X86 EM64T Linux

User input:
--------------------------------------------------------------
$molecule
0 1
C	-0.283773	-0.512746	0.018946
C	0.081227	0.269954	1.118346
C	0.666127	1.524154	0.795646
H	-0.074673	-0.064346	2.155046
C	0.759427	1.724154	-0.593554
S	0.114527	0.341354	-1.467854
C	1.125827	2.509954	1.833546
H	0.945927	2.124254	2.855646
H	0.593527	3.480154	1.745146
H	2.211127	2.725854	1.745146
C	-0.283773	-1.953446	0.018946
H	-0.823673	-1.953146	-0.916454
H	0.425727	-2.657246	-0.390554
H	-1.103973	-2.472346	0.492546
H	1.160527	2.584454	-1.142654
$end

$rem
JOBTYPE		SP
EXCHANGE	HF
CORRELATION	pRIMP2
BASIS		cc-pvtz
METHOD		rimp2
AUX_BASIS	rimp2-cc-pvtz
SOLVENT_METHOD	PCM
PURECART	11111
SYMMETRY	false
MEM_TOTAL	110000
SCF_CONVERGENCE = 6
THRESH=10
$end

$solvent
dielectric 4.90
$end
--------------------------------------------------------------

             Standard Nuclear Orientation (Angstroms)
    I     Atom           X                Y                Z
 ----------------------------------------------------------------
    1      C      -0.2837730000    -0.5127460000     0.0189460000
    2      C       0.0812270000     0.2699540000     1.1183460000
    3      C       0.6661270000     1.5241540000     0.7956460000
    4      H      -0.0746730000    -0.0643460000     2.1550460000
    5      C       0.7594270000     1.7241540000    -0.5935540000
    6      S       0.1145270000     0.3413540000    -1.4678540000
    7      C       1.1258270000     2.5099540000     1.8335460000
    8      H       0.9459270000     2.1242540000     2.8556460000
    9      H       0.5935270000     3.4801540000     1.7451460000
   10      H       2.2111270000     2.7258540000     1.7451460000
   11      C      -0.2837730000    -1.9534460000     0.0189460000
   12      H      -0.8236730000    -1.9531460000    -0.9164540000
   13      H       0.4257270000    -2.6572460000    -0.3905540000
   14      H      -1.1039730000    -2.4723460000     0.4925460000
   15      H       1.1605270000     2.5844540000    -1.1426540000
 ----------------------------------------------------------------

   10    -629.4075697938      5.23e-07  Convergence criterion met
 Total energy in the final basis set =     -629.4075697938
        RIMP2         total energy =      -630.5881977910 a.u.

                    Orbital Energies (a.u.)
 --------------------------------------------------------------

 Alpha MOs
 -- Occupied --
-91.9794 -11.2700 -11.2613 -11.2474 -11.2322 -11.2271 -11.2142  -8.9794
 -6.6603  -6.6597  -6.6592  -1.1622  -1.0544  -0.9954  -0.9454  -0.8818
 -0.7481  -0.7201  -0.6462  -0.5895  -0.5758  -0.5698  -0.5512  -0.5467
 -0.5123  -0.4793  -0.4630  -0.4465  -0.3379  -0.3003

          Ground-State Mulliken Net Atomic Charges

     Atom                 Charge (a.u.)
  ----------------------------------------
      1 C                     0.001042
      2 C                    -0.240453
      3 C                     0.033054
      4 H                     0.180099
      5 C                    -0.244913
      6 S                    -0.000317
      7 C                    -0.271702
      8 H                     0.101876
      9 H                     0.106759
     10 H                     0.106302
     11 C                    -0.359325
     12 H                     0.112878
     13 H                     0.148064
     14 H                     0.131906
     15 H                     0.194732
  ----------------------------------------
  Sum of atomic charges =     0.000000

                    Cartesian Multipole Moments
 -----------------------------------------------------------------
    Charge (ESU x 10^10)
                -0.0000
    Dipole Moment (Debye)
         X       0.4081      Y       0.1060      Z       1.0067
       Tot       1.0915
    Quadrupole Moments (Debye-Ang)
        XX     -52.2485     XY       4.0446     YY     -43.9460
        XZ      -0.1374     YZ       1.2059     ZZ     -48.6443

 Total job time:  156.81s(wall), 155.20s(cpu)
        *  Thank you very much for using Q-Chem.  Have a nice day.  *
