 Q-Chem 5.4, Q-Chem, Inc., Pleasanton, CA (2021)
 Q-Chem 5.4.0 for Intel X86 EM64T Linux

User input:
--------------------------------------------------------------
$molecule
0 1
C	0.004345	-0.576312	0.012833
C	0.004345	0.287288	1.112233
C	0.004445	1.671188	0.789533
H	0.004345	-0.081512	2.148933
C	0.004445	1.891888	-0.599667
S	0.004345	0.366088	-1.473967
C	0.004445	2.758988	1.827433
H	0.004445	2.333288	2.849533
H	-0.887955	3.413288	1.739033
H	0.896845	3.413188	1.739033
C	0.004345	-2.017012	0.012833
H	-1.010555	-2.016712	0.382133
H	-0.275755	-2.720812	-0.756967
H	0.328245	-2.535912	0.902833
H	0.004445	2.841088	-1.148767
$end

$rem
JOBTYPE		SP
EXCHANGE	HF
CORRELATION	pRIMP2
BASIS		cc-pvtz
METHOD		rimp2
AUX_BASIS	rimp2-cc-pvtz
SOLVENT_METHOD	PCM
PURECART	11111
SYMMETRY	false
MEM_TOTAL	110000
SCF_CONVERGENCE = 6
THRESH=10
$end

$solvent
dielectric 4.90
$end
--------------------------------------------------------------

   10    -629.4243176359      6.76e-07  Convergence criterion met
 Total energy in the final basis set =     -629.4243176359
        RIMP2         total energy =      -630.6001787813 a.u.
 Total job time:  156.31s(wall), 155.12s(cpu)
        *  Thank you very much for using Q-Chem.  Have a nice day.  *
 Q-Chem 5.4, Q-Chem, Inc., Pleasanton, CA (2021)
 Q-Chem 5.4.0 for Intel X86 EM64T Linux

User input:
--------------------------------------------------------------
$molecule
0 1
C	0.004345	-0.576312	0.012833
C	0.004345	0.287288	1.112233
C	0.004445	1.671188	0.789533
H	0.004345	-0.081512	2.148933
C	0.004445	1.891888	-0.599667
S	0.004345	0.366088	-1.473967
C	0.004445	2.758988	1.827433
H	0.004445	2.333288	2.849533
H	-0.887955	3.413288	1.739033
H	0.896845	3.413188	1.739033
C	0.004345	-2.017012	0.012833
H	-1.010555	-2.016712	0.382133
H	-0.275755	-2.720812	-0.756967
H	0.328245	-2.535912	0.902833
H	0.004445	2.841088	-1.148767
$end

$rem
JOBTYPE		SP
EXCHANGE	HF
CORRELATION	pRIMP2
BASIS		cc-pvtz
METHOD		rimp2
AUX_BASIS	rimp2-cc-pvtz
SOLVENT_METHOD	PCM
PURECART	11111
SYMMETRY	false
MEM_TOTAL	110000
SCF_CONVERGENCE = 6
THRESH=10
$end

$solvent
dielectric 4.90
$end
--------------------------------------------------------------

             Standard Nuclear Orientation (Angstroms)
    I     Atom           X                Y                Z
 ----------------------------------------------------------------
    1      C       0.0043450000    -0.5763120000     0.0128330000
    2      C       0.0043450000     0.2872880000     1.1122330000
    3      C       0.0044450000     1.6711880000     0.7895330000
    4      H       0.0043450000    -0.0815120000     2.1489330000
    5      C       0.0044450000     1.8918880000    -0.5996670000
    6      S       0.0043450000     0.3660880000    -1.4739670000
    7      C       0.0044450000     2.7589880000     1.8274330000
    8      H       0.0044450000     2.3332880000     2.8495330000
    9      H      -0.8879550000     3.4132880000     1.7390330000
   10      H       0.8968450000     3.4131880000     1.7390330000
   11      C       0.0043450000    -2.0170120000     0.0128330000
   12      H      -1.0105550000    -2.0167120000     0.3821330000
   13      H      -0.2757550000    -2.7208120000    -0.7569670000
   14      H       0.3282450000    -2.5359120000     0.9028330000
   15      H       0.0044450000     2.8410880000    -1.1487670000
 ----------------------------------------------------------------

   10    -629.4243176359      6.76e-07  Convergence criterion met
 Total energy in the final basis set =     -629.4243176359
        RIMP2         total energy =      -630.6001787813 a.u.

                    Orbital Energies (a.u.)
 --------------------------------------------------------------

 Alpha MOs
 -- Occupied --
-91.9778 -11.2861 -11.2484 -11.2470 -11.2266 -11.2239 -11.2216  -8.9775
 -6.6585  -6.6580  -6.6574  -1.1601  -1.0560  -0.9982  -0.9408  -0.8832
 -0.7428  -0.7192  -0.6480  -0.5901  -0.5734  -0.5714  -0.5555  -0.5445
 -0.5083  -0.4916  -0.4655  -0.4545  -0.3378  -0.2893

          Ground-State Mulliken Net Atomic Charges

     Atom                 Charge (a.u.)
  ----------------------------------------
      1 C                     0.075448
      2 C                    -0.307820
      3 C                     0.047402
      4 H                     0.175170
      5 C                    -0.279354
      6 S                    -0.000759
      7 C                    -0.275332
      8 H                     0.101200
      9 H                     0.107372
     10 H                     0.107348
     11 C                    -0.389699
     12 H                     0.143691
     13 H                     0.162890
     14 H                     0.140623
     15 H                     0.191819
  ----------------------------------------
  Sum of atomic charges =     0.000000

                    Cartesian Multipole Moments
 -----------------------------------------------------------------
    Charge (ESU x 10^10)
                -0.0000
    Dipole Moment (Debye)
         X      -0.6970      Y      -0.7522      Z       1.6569
       Tot       1.9486
    Quadrupole Moments (Debye-Ang)
        XX     -54.3092     XY       1.5364     YY     -41.7845
        XZ       0.1675     YZ      -0.0133     ZZ     -48.6277

 Total job time:  156.99s(wall), 155.24s(cpu)
        *  Thank you very much for using Q-Chem.  Have a nice day.  *
