 Q-Chem 5.4, Q-Chem, Inc., Pleasanton, CA (2021)
 Q-Chem 5.4.0 for Intel X86 EM64T Linux

User input:
--------------------------------------------------------------
$molecule
0 1
C	-0.518523	-0.333974	0.010277
C	0.143077	0.221126	1.109677
C	1.203177	1.110626	0.786977
H	-0.139423	-0.015974	2.146377
C	1.372277	1.252426	-0.602223
S	0.203377	0.271726	-1.476523
C	2.036477	1.809826	1.824877
H	1.710377	1.536226	2.846977
H	1.964077	2.914026	1.736477
H	3.111277	1.546726	1.736477
C	-0.518523	-1.774674	0.010277
H	-0.888023	-1.774374	1.025077
H	-1.288323	-2.478474	-0.269923
H	0.371477	-2.293574	0.334177
H	2.099377	1.862626	-1.151323
$end

$rem
JOBTYPE		SP
EXCHANGE	HF
CORRELATION	pRIMP2
BASIS		cc-pvtz
METHOD		rimp2
AUX_BASIS	rimp2-cc-pvtz
SOLVENT_METHOD	PCM
PURECART	11111
SYMMETRY	false
MEM_TOTAL	110000
SCF_CONVERGENCE = 6
THRESH=10
$end

$solvent
dielectric 4.90
$end
--------------------------------------------------------------

             Standard Nuclear Orientation (Angstroms)
    I     Atom           X                Y                Z
 ----------------------------------------------------------------
    1      C      -0.5185230000    -0.3339740000     0.0102770000
    2      C       0.1430770000     0.2211260000     1.1096770000
    3      C       1.2031770000     1.1106260000     0.7869770000
    4      H      -0.1394230000    -0.0159740000     2.1463770000
    5      C       1.3722770000     1.2524260000    -0.6022230000
    6      S       0.2033770000     0.2717260000    -1.4765230000
    7      C       2.0364770000     1.8098260000     1.8248770000
    8      H       1.7103770000     1.5362260000     2.8469770000
    9      H       1.9640770000     2.9140260000     1.7364770000
   10      H       3.1112770000     1.5467260000     1.7364770000
   11      C      -0.5185230000    -1.7746740000     0.0102770000
   12      H      -0.8880230000    -1.7743740000     1.0250770000
   13      H      -1.2883230000    -2.4784740000    -0.2699230000
   14      H       0.3714770000    -2.2935740000     0.3341770000
   15      H       2.0993770000     1.8626260000    -1.1513230000
 ----------------------------------------------------------------

   10    -629.3760441712      8.35e-07  Convergence criterion met
 Total energy in the final basis set =     -629.3760441712
        RIMP2         total energy =      -630.5640448312 a.u.

                    Orbital Energies (a.u.)
 --------------------------------------------------------------

 Alpha MOs
 -- Occupied --
-91.9719 -11.2748 -11.2556 -11.2493 -11.2474 -11.2290 -11.2104  -8.9728
 -6.6537  -6.6528  -6.6525  -1.1695  -1.0551  -1.0003  -0.9356  -0.8839
 -0.7457  -0.7304  -0.6438  -0.5917  -0.5827  -0.5665  -0.5556  -0.5427
 -0.5168  -0.4779  -0.4627  -0.4241  -0.3364  -0.3041

          Ground-State Mulliken Net Atomic Charges

     Atom                 Charge (a.u.)
  ----------------------------------------
      1 C                    -0.049123
      2 C                    -0.185929
      3 C                     0.008056
      4 H                     0.179841
      5 C                    -0.207899
      6 S                     0.005257
      7 C                    -0.267628
      8 H                     0.101667
      9 H                     0.106961
     10 H                     0.105802
     11 C                    -0.360541
     12 H                     0.105089
     13 H                     0.132622
     14 H                     0.130124
     15 H                     0.195700
  ----------------------------------------
  Sum of atomic charges =     0.000000

                    Cartesian Multipole Moments
 -----------------------------------------------------------------
    Charge (ESU x 10^10)
                -0.0000
    Dipole Moment (Debye)
         X       1.6643      Y       0.2271      Z       2.2371
       Tot       2.7975
    Quadrupole Moments (Debye-Ang)
        XX     -48.8376     XY       5.1897     YY     -48.2535
        XZ      -0.1488     YZ      -0.8991     ZZ     -48.4156

 Total job time:  160.33s(wall), 159.42s(cpu)
        *  Thank you very much for using Q-Chem.  Have a nice day.  *
