 Q-Chem 5.4, Q-Chem, Inc., Pleasanton, CA (2021)
 Q-Chem 5.4.0 for Intel X86 EM64T Linux

User input:
--------------------------------------------------------------
$molecule
0 1
C	-0.583384	-0.237129	0.017710
C	0.164516	0.194671	1.117110
C	1.363016	0.886571	0.794410
H	-0.154884	0.010271	2.153810
C	1.554116	0.996871	-0.594790
S	0.232816	0.234071	-1.469090
C	2.305116	1.430471	1.832310
H	1.936416	1.217571	2.854410
H	2.425516	2.530371	1.743910
H	3.317916	0.984671	1.743910
C	-0.583384	-1.677829	0.017710
H	-1.410684	-1.677529	-0.676590
H	-0.056784	-2.381629	-0.609790
H	-1.192184	-2.196729	0.743310
H	2.376216	1.471471	-1.143890
$end

$rem
JOBTYPE		SP
EXCHANGE	HF
CORRELATION	pRIMP2
BASIS		cc-pvtz
METHOD		rimp2
AUX_BASIS	rimp2-cc-pvtz
SOLVENT_METHOD	PCM
PURECART	11111
SYMMETRY	false
MEM_TOTAL	110000
SCF_CONVERGENCE = 6
THRESH=10
$end

$solvent
dielectric 4.90
$end
--------------------------------------------------------------

             Standard Nuclear Orientation (Angstroms)
    I     Atom           X                Y                Z
 ----------------------------------------------------------------
    1      C      -0.5833840000    -0.2371290000     0.0177100000
    2      C       0.1645160000     0.1946710000     1.1171100000
    3      C       1.3630160000     0.8865710000     0.7944100000
    4      H      -0.1548840000     0.0102710000     2.1538100000
    5      C       1.5541160000     0.9968710000    -0.5947900000
    6      S       0.2328160000     0.2340710000    -1.4690900000
    7      C       2.3051160000     1.4304710000     1.8323100000
    8      H       1.9364160000     1.2175710000     2.8544100000
    9      H       2.4255160000     2.5303710000     1.7439100000
   10      H       3.3179160000     0.9846710000     1.7439100000
   11      C      -0.5833840000    -1.6778290000     0.0177100000
   12      H      -1.4106840000    -1.6775290000    -0.6765900000
   13      H      -0.0567840000    -2.3816290000    -0.6097900000
   14      H      -1.1921840000    -2.1967290000     0.7433100000
   15      H       2.3762160000     1.4714710000    -1.1438900000
 ----------------------------------------------------------------

   11    -629.3421351584      5.73e-07  Convergence criterion met
 Total energy in the final basis set =     -629.3421351584
        RIMP2         total energy =      -630.5327748973 a.u.

                    Orbital Energies (a.u.)
 --------------------------------------------------------------

 Alpha MOs
 -- Occupied --
-91.9761 -11.2843 -11.2524 -11.2489 -11.2381 -11.2287 -11.2055  -8.9768
 -6.6577  -6.6569  -6.6566  -1.1726  -1.0552  -0.9970  -0.9419  -0.8806
 -0.7535  -0.7294  -0.6413  -0.5897  -0.5771  -0.5737  -0.5508  -0.5439
 -0.5196  -0.4786  -0.4531  -0.4276  -0.3350  -0.2941

          Ground-State Mulliken Net Atomic Charges

     Atom                 Charge (a.u.)
  ----------------------------------------
      1 C                    -0.130866
      2 C                    -0.094753
      3 C                    -0.023391
      4 H                     0.186776
      5 C                    -0.174183
      6 S                     0.011411
      7 C                    -0.268464
      8 H                     0.102049
      9 H                     0.106379
     10 H                     0.103823
     11 C                    -0.390415
     12 H                     0.113917
     13 H                     0.142202
     14 H                     0.116460
     15 H                     0.199055
  ----------------------------------------
  Sum of atomic charges =     0.000000

                    Cartesian Multipole Moments
 -----------------------------------------------------------------
    Charge (ESU x 10^10)
                -0.0000
    Dipole Moment (Debye)
         X       2.1778      Y       0.3117      Z       1.4279
       Tot       2.6227
    Quadrupole Moments (Debye-Ang)
        XX     -47.7334     XY       4.9959     YY     -50.1227
        XZ      -0.6022     YZ       0.5777     ZZ     -47.6631

 Total job time:  176.59s(wall), 174.66s(cpu)
        *  Thank you very much for using Q-Chem.  Have a nice day.  *
