 Q-Chem 5.4, Q-Chem, Inc., Pleasanton, CA (2021)
 Q-Chem 5.4.0 for Intel X86 EM64T Linux

User input:
--------------------------------------------------------------
$molecule
0 1
C	-0.060553	-0.573729	0.010354
C	0.014747	0.286571	1.109754
C	0.135347	1.665271	0.787054
H	-0.017353	-0.080829	2.146454
C	0.154647	1.885071	-0.602146
S	0.021647	0.365071	-1.476446
C	0.230247	2.748871	1.824954
H	0.193147	2.324771	2.847054
H	-0.601753	3.478371	1.736554
H	1.176247	3.322871	1.736554
C	-0.060553	-2.014429	0.010354
H	0.126847	-2.014129	1.073954
H	-0.867353	-2.718229	0.152554
H	0.872147	-2.533329	-0.154146
H	0.237347	2.830671	-1.151246
$end

$rem
JOBTYPE		SP
EXCHANGE	HF
CORRELATION	pRIMP2
BASIS		cc-pvtz
METHOD		rimp2
AUX_BASIS	rimp2-cc-pvtz
SOLVENT_METHOD	PCM
PURECART	11111
SYMMETRY	false
MEM_TOTAL	110000
SCF_CONVERGENCE = 6
THRESH=10
$end

$solvent
dielectric 4.90
$end
--------------------------------------------------------------

             Standard Nuclear Orientation (Angstroms)
    I     Atom           X                Y                Z
 ----------------------------------------------------------------
    1      C      -0.0605530000    -0.5737290000     0.0103540000
    2      C       0.0147470000     0.2865710000     1.1097540000
    3      C       0.1353470000     1.6652710000     0.7870540000
    4      H      -0.0173530000    -0.0808290000     2.1464540000
    5      C       0.1546470000     1.8850710000    -0.6021460000
    6      S       0.0216470000     0.3650710000    -1.4764460000
    7      C       0.2302470000     2.7488710000     1.8249540000
    8      H       0.1931470000     2.3247710000     2.8470540000
    9      H      -0.6017530000     3.4783710000     1.7365540000
   10      H       1.1762470000     3.3228710000     1.7365540000
   11      C      -0.0605530000    -2.0144290000     0.0103540000
   12      H       0.1268470000    -2.0141290000     1.0739540000
   13      H      -0.8673530000    -2.7182290000     0.1525540000
   14      H       0.8721470000    -2.5333290000    -0.1541460000
   15      H       0.2373470000     2.8306710000    -1.1512460000
 ----------------------------------------------------------------

   10    -629.4246427577      4.94e-07  Convergence criterion met
 Total energy in the final basis set =     -629.4246427577
        RIMP2         total energy =      -630.6024954153 a.u.

                    Orbital Energies (a.u.)
 --------------------------------------------------------------

 Alpha MOs
 -- Occupied --
-91.9751 -11.2778 -11.2572 -11.2470 -11.2340 -11.2274 -11.2164  -8.9752
 -6.6561  -6.6556  -6.6551  -1.1611  -1.0540  -0.9997  -0.9397  -0.8844
 -0.7423  -0.7242  -0.6489  -0.5916  -0.5775  -0.5659  -0.5599  -0.5420
 -0.5101  -0.4853  -0.4680  -0.4381  -0.3379  -0.3038

          Ground-State Mulliken Net Atomic Charges

     Atom                 Charge (a.u.)
  ----------------------------------------
      1 C                     0.067045
      2 C                    -0.270509
      3 C                     0.030534
      4 H                     0.177364
      5 C                    -0.250410
      6 S                    -0.008731
      7 C                    -0.273743
      8 H                     0.101094
      9 H                     0.107208
     10 H                     0.107262
     11 C                    -0.374691
     12 H                     0.121405
     13 H                     0.143428
     14 H                     0.129491
     15 H                     0.193253
  ----------------------------------------
  Sum of atomic charges =     0.000000

                    Cartesian Multipole Moments
 -----------------------------------------------------------------
    Charge (ESU x 10^10)
                -0.0000
    Dipole Moment (Debye)
         X       0.2591      Y      -0.0813      Z       2.1370
       Tot       2.1542
    Quadrupole Moments (Debye-Ang)
        XX     -53.6650     XY       0.5918     YY     -42.2406
        XZ      -0.1293     YZ      -1.0950     ZZ     -48.9469

 Total job time:  161.86s(wall), 159.98s(cpu)
        *  Thank you very much for using Q-Chem.  Have a nice day.  *
