 Q-Chem 5.4, Q-Chem, Inc., Pleasanton, CA (2021)
 Q-Chem 5.4.0 for Intel X86 EM64T Linux

User input:
--------------------------------------------------------------
$molecule
0 1
C	-0.336978	-0.485421	0.019394
C	0.094822	0.262479	1.118794
C	0.786822	1.460979	0.796094
H	-0.089578	-0.056921	2.155494
C	0.897122	1.652079	-0.593106
S	0.134222	0.330679	-1.467406
C	1.330722	2.402979	1.833994
H	1.117922	2.034379	2.856094
H	0.885022	3.415779	1.745594
H	2.430722	2.523379	1.745594
C	-0.336978	-1.926121	0.019394
H	-0.706278	-1.925821	-0.995506
H	0.432822	-2.629921	-0.260706
H	-1.226978	-2.445021	0.343294
H	1.371822	2.474079	-1.142206
$end

$rem
JOBTYPE		SP
EXCHANGE	HF
CORRELATION	pRIMP2
BASIS		cc-pvtz
METHOD		rimp2
AUX_BASIS	rimp2-cc-pvtz
SOLVENT_METHOD	PCM
PURECART	11111
SYMMETRY	false
MEM_TOTAL	110000
SCF_CONVERGENCE = 6
THRESH=10
$end

$solvent
dielectric 4.90
$end
--------------------------------------------------------------

             Standard Nuclear Orientation (Angstroms)
    I     Atom           X                Y                Z
 ----------------------------------------------------------------
    1      C      -0.3369780000    -0.4854210000     0.0193940000
    2      C       0.0948220000     0.2624790000     1.1187940000
    3      C       0.7868220000     1.4609790000     0.7960940000
    4      H      -0.0895780000    -0.0569210000     2.1554940000
    5      C       0.8971220000     1.6520790000    -0.5931060000
    6      S       0.1342220000     0.3306790000    -1.4674060000
    7      C       1.3307220000     2.4029790000     1.8339940000
    8      H       1.1179220000     2.0343790000     2.8560940000
    9      H       0.8850220000     3.4157790000     1.7455940000
   10      H       2.4307220000     2.5233790000     1.7455940000
   11      C      -0.3369780000    -1.9261210000     0.0193940000
   12      H      -0.7062780000    -1.9258210000    -0.9955060000
   13      H       0.4328220000    -2.6299210000    -0.2607060000
   14      H      -1.2269780000    -2.4450210000     0.3432940000
   15      H       1.3718220000     2.4740790000    -1.1422060000
 ----------------------------------------------------------------

   10    -629.4015051743      5.45e-07  Convergence criterion met
 Total energy in the final basis set =     -629.4015051743
        RIMP2         total energy =      -630.5836006308 a.u.

                    Orbital Energies (a.u.)
 --------------------------------------------------------------

 Alpha MOs
 -- Occupied --
-91.9793 -11.2659 -11.2642 -11.2475 -11.2345 -11.2272 -11.2128  -8.9793
 -6.6602  -6.6596  -6.6591  -1.1632  -1.0544  -0.9950  -0.9455  -0.8814
 -0.7490  -0.7208  -0.6459  -0.5890  -0.5765  -0.5697  -0.5513  -0.5468
 -0.5134  -0.4752  -0.4632  -0.4437  -0.3372  -0.3029

          Ground-State Mulliken Net Atomic Charges

     Atom                 Charge (a.u.)
  ----------------------------------------
      1 C                    -0.006950
      2 C                    -0.234713
      3 C                     0.033844
      4 H                     0.179722
      5 C                    -0.240881
      6 S                     0.001534
      7 C                    -0.271063
      8 H                     0.101985
      9 H                     0.106724
     10 H                     0.105925
     11 C                    -0.355946
     12 H                     0.109836
     13 H                     0.147162
     14 H                     0.127498
     15 H                     0.195321
  ----------------------------------------
  Sum of atomic charges =     0.000000

                    Cartesian Multipole Moments
 -----------------------------------------------------------------
    Charge (ESU x 10^10)
                -0.0000
    Dipole Moment (Debye)
         X       0.7257      Y       0.2322      Z       1.0000
       Tot       1.2572
    Quadrupole Moments (Debye-Ang)
        XX     -51.6197     XY       4.2570     YY     -44.7648
        XZ      -0.0496     YZ       1.1940     ZZ     -48.6140

 Total job time:  157.08s(wall), 155.08s(cpu)
        *  Thank you very much for using Q-Chem.  Have a nice day.  *
