 Q-Chem 5.4, Q-Chem, Inc., Pleasanton, CA (2021)
 Q-Chem 5.4.0 for Intel X86 EM64T Linux

User input:
--------------------------------------------------------------
$molecule
0 1
C	-0.283136	-0.512744	0.011685
C	0.081864	0.269956	1.111085
C	0.666764	1.524156	0.788385
H	-0.074036	-0.064344	2.147785
C	0.760064	1.724156	-0.600815
S	0.115164	0.341356	-1.475115
C	1.126464	2.509956	1.826285
H	0.946564	2.124256	2.848385
H	0.594164	3.480156	1.737885
H	2.211764	2.725856	1.737885
C	-0.283136	-1.953444	0.011685
H	-0.977436	-1.953644	0.838985
H	0.344364	-2.657244	0.538285
H	-1.008736	-2.472344	-0.597115
H	1.161164	2.584456	-1.149915
$end

$rem
JOBTYPE		SP
EXCHANGE	HF
CORRELATION	pRIMP2
BASIS		cc-pvtz
METHOD		rimp2
AUX_BASIS	rimp2-cc-pvtz
SOLVENT_METHOD	PCM
PURECART	11111
SYMMETRY	false
MEM_TOTAL	110000
SCF_CONVERGENCE = 6
THRESH=10
$end

$solvent
dielectric 4.90
$end
--------------------------------------------------------------

             Standard Nuclear Orientation (Angstroms)
    I     Atom           X                Y                Z
 ----------------------------------------------------------------
    1      C      -0.2831360000    -0.5127440000     0.0116850000
    2      C       0.0818640000     0.2699560000     1.1110850000
    3      C       0.6667640000     1.5241560000     0.7883850000
    4      H      -0.0740360000    -0.0643440000     2.1477850000
    5      C       0.7600640000     1.7241560000    -0.6008150000
    6      S       0.1151640000     0.3413560000    -1.4751150000
    7      C       1.1264640000     2.5099560000     1.8262850000
    8      H       0.9465640000     2.1242560000     2.8483850000
    9      H       0.5941640000     3.4801560000     1.7378850000
   10      H       2.2117640000     2.7258560000     1.7378850000
   11      C      -0.2831360000    -1.9534440000     0.0116850000
   12      H      -0.9774360000    -1.9536440000     0.8389850000
   13      H       0.3443640000    -2.6572440000     0.5382850000
   14      H      -1.0087360000    -2.4723440000    -0.5971150000
   15      H       1.1611640000     2.5844560000    -1.1499150000
 ----------------------------------------------------------------

   10    -629.4108702959      5.32e-07  Convergence criterion met
 Total energy in the final basis set =     -629.4108702959
        RIMP2         total energy =      -630.5916465585 a.u.

                    Orbital Energies (a.u.)
 --------------------------------------------------------------

 Alpha MOs
 -- Occupied --
-91.9747 -11.2732 -11.2591 -11.2476 -11.2345 -11.2274 -11.2153  -8.9749
 -6.6558  -6.6552  -6.6547  -1.1618  -1.0538  -0.9986  -0.9400  -0.8840
 -0.7432  -0.7234  -0.6483  -0.5868  -0.5772  -0.5653  -0.5592  -0.5428
 -0.5125  -0.4876  -0.4634  -0.4400  -0.3376  -0.2975

          Ground-State Mulliken Net Atomic Charges

     Atom                 Charge (a.u.)
  ----------------------------------------
      1 C                     0.026395
      2 C                    -0.271996
      3 C                     0.037879
      4 H                     0.178303
      5 C                    -0.248344
      6 S                    -0.001891
      7 C                    -0.272076
      8 H                     0.101333
      9 H                     0.106877
     10 H                     0.106929
     11 C                    -0.368792
     12 H                     0.125066
     13 H                     0.154345
     14 H                     0.133166
     15 H                     0.192806
  ----------------------------------------
  Sum of atomic charges =     0.000000

                    Cartesian Multipole Moments
 -----------------------------------------------------------------
    Charge (ESU x 10^10)
                -0.0000
    Dipole Moment (Debye)
         X       0.2396      Y      -0.0962      Z       2.0360
       Tot       2.0523
    Quadrupole Moments (Debye-Ang)
        XX     -52.2637     XY       4.2994     YY     -43.9207
        XZ       0.2614     YZ      -0.8971     ZZ     -48.6651

 Total job time:  157.02s(wall), 155.38s(cpu)
        *  Thank you very much for using Q-Chem.  Have a nice day.  *
