 Q-Chem 5.4, Q-Chem, Inc., Pleasanton, CA (2021)
 Q-Chem 5.4.0 for Intel X86 EM64T Linux

User input:
--------------------------------------------------------------
$molecule
0 1
C	-0.176982	-0.553191	0.010354
C	0.046518	0.281009	1.109754
C	0.404718	1.617709	0.787054
H	-0.048882	-0.075291	2.146454
C	0.461918	1.830809	-0.602146
S	0.066918	0.357109	-1.476446
C	0.686318	2.668409	1.824954
H	0.576118	2.257309	2.847054
H	-0.006282	3.531409	1.736554
H	1.717618	3.069409	1.736554
C	-0.176982	-1.993891	0.010354
H	0.010418	-1.993591	1.073954
H	-0.983782	-2.697691	0.152554
H	0.755718	-2.512791	-0.154146
H	0.707618	2.747709	-1.151246
$end

$rem
JOBTYPE		SP
EXCHANGE	HF
CORRELATION	pRIMP2
BASIS		cc-pvtz
METHOD		rimp2
AUX_BASIS	rimp2-cc-pvtz
SOLVENT_METHOD	PCM
PURECART	11111
SYMMETRY	false
MEM_TOTAL	110000
SCF_CONVERGENCE = 6
THRESH=10
$end

$solvent
dielectric 4.90
$end
--------------------------------------------------------------

             Standard Nuclear Orientation (Angstroms)
    I     Atom           X                Y                Z
 ----------------------------------------------------------------
    1      C      -0.1769820000    -0.5531910000     0.0103540000
    2      C       0.0465180000     0.2810090000     1.1097540000
    3      C       0.4047180000     1.6177090000     0.7870540000
    4      H      -0.0488820000    -0.0752910000     2.1464540000
    5      C       0.4619180000     1.8308090000    -0.6021460000
    6      S       0.0669180000     0.3571090000    -1.4764460000
    7      C       0.6863180000     2.6684090000     1.8249540000
    8      H       0.5761180000     2.2573090000     2.8470540000
    9      H      -0.0062820000     3.5314090000     1.7365540000
   10      H       1.7176180000     3.0694090000     1.7365540000
   11      C      -0.1769820000    -1.9938910000     0.0103540000
   12      H       0.0104180000    -1.9935910000     1.0739540000
   13      H      -0.9837820000    -2.6976910000     0.1525540000
   14      H       0.7557180000    -2.5127910000    -0.1541460000
   15      H       0.7076180000     2.7477090000    -1.1512460000
 ----------------------------------------------------------------

   10    -629.4205338996      4.91e-07  Convergence criterion met
 Total energy in the final basis set =     -629.4205338996
        RIMP2         total energy =      -630.5992652401 a.u.

                    Orbital Energies (a.u.)
 --------------------------------------------------------------

 Alpha MOs
 -- Occupied --
-91.9751 -11.2765 -11.2581 -11.2470 -11.2346 -11.2275 -11.2157  -8.9752
 -6.6561  -6.6555  -6.6550  -1.1617  -1.0541  -0.9996  -0.9392  -0.8842
 -0.7424  -0.7247  -0.6482  -0.5918  -0.5777  -0.5662  -0.5594  -0.5420
 -0.5106  -0.4835  -0.4682  -0.4380  -0.3375  -0.3037

          Ground-State Mulliken Net Atomic Charges

     Atom                 Charge (a.u.)
  ----------------------------------------
      1 C                     0.054905
      2 C                    -0.271217
      3 C                     0.034641
      4 H                     0.176830
      5 C                    -0.249728
      6 S                    -0.007323
      7 C                    -0.272614
      8 H                     0.101121
      9 H                     0.107122
     10 H                     0.107166
     11 C                    -0.372238
     12 H                     0.122679
     13 H                     0.144750
     14 H                     0.130857
     15 H                     0.193048
  ----------------------------------------
  Sum of atomic charges =     0.000000

                    Cartesian Multipole Moments
 -----------------------------------------------------------------
    Charge (ESU x 10^10)
                -0.0000
    Dipole Moment (Debye)
         X       0.5289      Y      -0.0584      Z       2.1445
       Tot       2.2095
    Quadrupole Moments (Debye-Ang)
        XX     -53.2127     XY       2.0310     YY     -42.8810
        XZ      -0.1662     YZ      -1.0989     ZZ     -48.9009

 Total job time:  155.76s(wall), 155.04s(cpu)
        *  Thank you very much for using Q-Chem.  Have a nice day.  *
