 Q-Chem 5.4, Q-Chem, Inc., Pleasanton, CA (2021)
 Q-Chem 5.4.0 for Intel X86 EM64T Linux

User input:
--------------------------------------------------------------
$molecule
0 1
C	0.003542	-0.576309	0.011685
C	0.003542	0.287291	1.111085
C	0.003642	1.671191	0.788385
H	0.003542	-0.081509	2.147785
C	0.003642	1.891891	-0.600815
S	0.003542	0.366091	-1.475115
C	0.003642	2.758991	1.826285
H	0.003642	2.333291	2.848385
H	-0.888758	3.413291	1.737885
H	0.896042	3.413191	1.737885
C	0.003542	-2.017009	0.011685
H	-0.690758	-2.017209	0.838985
H	0.631042	-2.720809	0.538285
H	-0.722058	-2.535909	-0.597115
H	0.003642	2.841091	-1.149915
$end

$rem
JOBTYPE		SP
EXCHANGE	HF
CORRELATION	pRIMP2
BASIS		cc-pvtz
METHOD		rimp2
AUX_BASIS	rimp2-cc-pvtz
SOLVENT_METHOD	PCM
PURECART	11111
SYMMETRY	false
MEM_TOTAL	110000
SCF_CONVERGENCE = 6
THRESH=10
$end

$solvent
dielectric 4.90
$end
--------------------------------------------------------------

   10    -629.4240395059      5.57e-07  Convergence criterion met
 Total energy in the final basis set =     -629.4240395059
        RIMP2         total energy =      -630.6012953593 a.u.
 Total job time:  157.25s(wall), 155.09s(cpu)
        *  Thank you very much for using Q-Chem.  Have a nice day.  *
 Q-Chem 5.4, Q-Chem, Inc., Pleasanton, CA (2021)
 Q-Chem 5.4.0 for Intel X86 EM64T Linux

User input:
--------------------------------------------------------------
$molecule
0 1
C	0.003542	-0.576309	0.011685
C	0.003542	0.287291	1.111085
C	0.003642	1.671191	0.788385
H	0.003542	-0.081509	2.147785
C	0.003642	1.891891	-0.600815
S	0.003542	0.366091	-1.475115
C	0.003642	2.758991	1.826285
H	0.003642	2.333291	2.848385
H	-0.888758	3.413291	1.737885
H	0.896042	3.413191	1.737885
C	0.003542	-2.017009	0.011685
H	-0.690758	-2.017209	0.838985
H	0.631042	-2.720809	0.538285
H	-0.722058	-2.535909	-0.597115
H	0.003642	2.841091	-1.149915
$end

$rem
JOBTYPE		SP
EXCHANGE	HF
CORRELATION	pRIMP2
BASIS		cc-pvtz
METHOD		rimp2
AUX_BASIS	rimp2-cc-pvtz
SOLVENT_METHOD	PCM
PURECART	11111
SYMMETRY	false
MEM_TOTAL	110000
SCF_CONVERGENCE = 6
THRESH=10
$end

$solvent
dielectric 4.90
$end
--------------------------------------------------------------

             Standard Nuclear Orientation (Angstroms)
    I     Atom           X                Y                Z
 ----------------------------------------------------------------
    1      C       0.0035420000    -0.5763090000     0.0116850000
    2      C       0.0035420000     0.2872910000     1.1110850000
    3      C       0.0036420000     1.6711910000     0.7883850000
    4      H       0.0035420000    -0.0815090000     2.1477850000
    5      C       0.0036420000     1.8918910000    -0.6008150000
    6      S       0.0035420000     0.3660910000    -1.4751150000
    7      C       0.0036420000     2.7589910000     1.8262850000
    8      H       0.0036420000     2.3332910000     2.8483850000
    9      H      -0.8887580000     3.4132910000     1.7378850000
   10      H       0.8960420000     3.4131910000     1.7378850000
   11      C       0.0035420000    -2.0170090000     0.0116850000
   12      H      -0.6907580000    -2.0172090000     0.8389850000
   13      H       0.6310420000    -2.7208090000     0.5382850000
   14      H      -0.7220580000    -2.5359090000    -0.5971150000
   15      H       0.0036420000     2.8410910000    -1.1499150000
 ----------------------------------------------------------------

   10    -629.4240395059      5.57e-07  Convergence criterion met
 Total energy in the final basis set =     -629.4240395059
        RIMP2         total energy =      -630.6012953593 a.u.

                    Orbital Energies (a.u.)
 --------------------------------------------------------------

 Alpha MOs
 -- Occupied --
-91.9771 -11.2808 -11.2532 -11.2472 -11.2290 -11.2270 -11.2181  -8.9769
 -6.6579  -6.6573  -6.6568  -1.1604  -1.0546  -0.9989  -0.9403  -0.8838
 -0.7424  -0.7218  -0.6495  -0.5895  -0.5750  -0.5658  -0.5601  -0.5431
 -0.5091  -0.4885  -0.4668  -0.4466  -0.3373  -0.2968

          Ground-State Mulliken Net Atomic Charges

     Atom                 Charge (a.u.)
  ----------------------------------------
      1 C                     0.067740
      2 C                    -0.278675
      3 C                     0.035416
      4 H                     0.177047
      5 C                    -0.263131
      6 S                    -0.005239
      7 C                    -0.274845
      8 H                     0.101197
      9 H                     0.107105
     10 H                     0.107318
     11 C                    -0.382146
     12 H                     0.131374
     13 H                     0.147566
     14 H                     0.136535
     15 H                     0.192738
  ----------------------------------------
  Sum of atomic charges =     0.000000

                    Cartesian Multipole Moments
 -----------------------------------------------------------------
    Charge (ESU x 10^10)
                -0.0000
    Dipole Moment (Debye)
         X      -0.4572      Y      -0.3444      Z       1.9677
       Tot       2.0493
    Quadrupole Moments (Debye-Ang)
        XX     -53.9809     XY       0.9520     YY     -42.0873
        XZ       0.2950     YZ      -0.8685     ZZ     -48.7437

 Total job time:  157.18s(wall), 155.34s(cpu)
        *  Thank you very much for using Q-Chem.  Have a nice day.  *
