 Q-Chem 5.4, Q-Chem, Inc., Pleasanton, CA (2021)
 Q-Chem 5.4.0 for Intel X86 EM64T Linux

User input:
--------------------------------------------------------------
$molecule
0 1
C	-0.334422	-0.485421	0.016152
C	0.097378	0.262479	1.115552
C	0.789378	1.460979	0.792852
H	-0.087022	-0.056921	2.152252
C	0.899678	1.652079	-0.596348
S	0.136778	0.330679	-1.470648
C	1.333278	2.402979	1.830752
H	1.120478	2.034379	2.852852
H	0.887578	3.415779	1.742352
H	2.433278	2.523379	1.742352
C	-0.334422	-1.926121	0.016152
H	-1.349222	-1.925821	-0.353348
H	-0.054222	-2.629921	-0.753648
H	-0.658322	-2.445021	0.906152
H	1.374378	2.474079	-1.145448
$end

$rem
JOBTYPE		SP
EXCHANGE	HF
CORRELATION	pRIMP2
BASIS		cc-pvtz
METHOD		rimp2
AUX_BASIS	rimp2-cc-pvtz
SOLVENT_METHOD	PCM
PURECART	11111
SYMMETRY	false
MEM_TOTAL	110000
SCF_CONVERGENCE = 6
THRESH=10
$end

$solvent
dielectric 4.90
$end
--------------------------------------------------------------

             Standard Nuclear Orientation (Angstroms)
    I     Atom           X                Y                Z
 ----------------------------------------------------------------
    1      C      -0.3344220000    -0.4854210000     0.0161520000
    2      C       0.0973780000     0.2624790000     1.1155520000
    3      C       0.7893780000     1.4609790000     0.7928520000
    4      H      -0.0870220000    -0.0569210000     2.1522520000
    5      C       0.8996780000     1.6520790000    -0.5963480000
    6      S       0.1367780000     0.3306790000    -1.4706480000
    7      C       1.3332780000     2.4029790000     1.8307520000
    8      H       1.1204780000     2.0343790000     2.8528520000
    9      H       0.8875780000     3.4157790000     1.7423520000
   10      H       2.4332780000     2.5233790000     1.7423520000
   11      C      -0.3344220000    -1.9261210000     0.0161520000
   12      H      -1.3492220000    -1.9258210000    -0.3533480000
   13      H      -0.0542220000    -2.6299210000    -0.7536480000
   14      H      -0.6583220000    -2.4450210000     0.9061520000
   15      H       1.3743780000     2.4740790000    -1.1454480000
 ----------------------------------------------------------------

   10    -629.3997895556      5.42e-07  Convergence criterion met
 Total energy in the final basis set =     -629.3997895556
        RIMP2         total energy =      -630.5812228359 a.u.

                    Orbital Energies (a.u.)
 --------------------------------------------------------------

 Alpha MOs
 -- Occupied --
-91.9769 -11.2739 -11.2573 -11.2473 -11.2301 -11.2268 -11.2151  -8.9770
 -6.6580  -6.6574  -6.6569  -1.1619  -1.0545  -0.9962  -0.9428  -0.8824
 -0.7457  -0.7204  -0.6447  -0.5874  -0.5734  -0.5731  -0.5505  -0.5453
 -0.5120  -0.4896  -0.4564  -0.4522  -0.3377  -0.2887

          Ground-State Mulliken Net Atomic Charges

     Atom                 Charge (a.u.)
  ----------------------------------------
      1 C                     0.001668
      2 C                    -0.253142
      3 C                     0.040843
      4 H                     0.181583
      5 C                    -0.256175
      6 S                    -0.003108
      7 C                    -0.270977
      8 H                     0.101374
      9 H                     0.106979
     10 H                     0.106229
     11 C                    -0.374742
     12 H                     0.129221
     13 H                     0.162436
     14 H                     0.133576
     15 H                     0.194235
  ----------------------------------------
  Sum of atomic charges =     0.000000

                    Cartesian Multipole Moments
 -----------------------------------------------------------------
    Charge (ESU x 10^10)
                -0.0000
    Dipole Moment (Debye)
         X       0.1233      Y      -0.2871      Z       1.2859
       Tot       1.3233
    Quadrupole Moments (Debye-Ang)
        XX     -51.9300     XY       5.1493     YY     -44.4792
        XZ      -0.1003     YZ       0.7384     ZZ     -48.3892

 Total job time:  157.72s(wall), 154.98s(cpu)
        *  Thank you very much for using Q-Chem.  Have a nice day.  *
