 Q-Chem 5.4, Q-Chem, Inc., Pleasanton, CA (2021)
 Q-Chem 5.4.0 for Intel X86 EM64T Linux

User input:
--------------------------------------------------------------
$molecule
0 1
C	-0.290043	-0.512746	0.018590
C	0.074957	0.269954	1.117990
C	0.659857	1.524154	0.795290
H	-0.080943	-0.064346	2.154690
C	0.753157	1.724154	-0.593910
S	0.108257	0.341354	-1.468210
C	1.119557	2.509954	1.833190
H	0.939657	2.124254	2.855290
H	0.587257	3.480154	1.744790
H	2.204857	2.725854	1.744790
C	-0.290043	-1.953446	0.018590
H	0.537357	-1.953146	-0.675510
H	0.236457	-2.657246	0.646190
H	-0.898843	-2.472346	-0.706910
H	1.154257	2.584454	-1.143010
$end

$rem
JOBTYPE		SP
EXCHANGE	HF
CORRELATION	pRIMP2
BASIS		cc-pvtz
METHOD		rimp2
AUX_BASIS	rimp2-cc-pvtz
SOLVENT_METHOD	PCM
PURECART	11111
SYMMETRY	false
MEM_TOTAL	110000
SCF_CONVERGENCE = 6
THRESH=10
$end

$solvent
dielectric 4.90
$end
--------------------------------------------------------------

             Standard Nuclear Orientation (Angstroms)
    I     Atom           X                Y                Z
 ----------------------------------------------------------------
    1      C      -0.2900430000    -0.5127460000     0.0185900000
    2      C       0.0749570000     0.2699540000     1.1179900000
    3      C       0.6598570000     1.5241540000     0.7952900000
    4      H      -0.0809430000    -0.0643460000     2.1546900000
    5      C       0.7531570000     1.7241540000    -0.5939100000
    6      S       0.1082570000     0.3413540000    -1.4682100000
    7      C       1.1195570000     2.5099540000     1.8331900000
    8      H       0.9396570000     2.1242540000     2.8552900000
    9      H       0.5872570000     3.4801540000     1.7447900000
   10      H       2.2048570000     2.7258540000     1.7447900000
   11      C      -0.2900430000    -1.9534460000     0.0185900000
   12      H       0.5373570000    -1.9531460000    -0.6755100000
   13      H       0.2364570000    -2.6572460000     0.6461900000
   14      H      -0.8988430000    -2.4723460000    -0.7069100000
   15      H       1.1542570000     2.5844540000    -1.1430100000
 ----------------------------------------------------------------

   10    -629.4104624972      6.76e-07  Convergence criterion met
 Total energy in the final basis set =     -629.4104624972
        RIMP2         total energy =      -630.5889634069 a.u.

                    Orbital Energies (a.u.)
 --------------------------------------------------------------

 Alpha MOs
 -- Occupied --
-91.9761 -11.2773 -11.2568 -11.2470 -11.2294 -11.2269 -11.2175  -8.9766
 -6.6575  -6.6569  -6.6563  -1.1632  -1.0563  -0.9950  -0.9443  -0.8809
 -0.7472  -0.7196  -0.6483  -0.5874  -0.5785  -0.5646  -0.5527  -0.5477
 -0.5100  -0.4889  -0.4632  -0.4504  -0.3398  -0.2932

          Ground-State Mulliken Net Atomic Charges

     Atom                 Charge (a.u.)
  ----------------------------------------
      1 C                     0.049401
      2 C                    -0.309537
      3 C                     0.056960
      4 H                     0.179132
      5 C                    -0.260650
      6 S                    -0.005246
      7 C                    -0.271083
      8 H                     0.101616
      9 H                     0.107581
     10 H                     0.106734
     11 C                    -0.372825
     12 H                     0.135906
     13 H                     0.159445
     14 H                     0.129026
     15 H                     0.193541
  ----------------------------------------
  Sum of atomic charges =     0.000000

                    Cartesian Multipole Moments
 -----------------------------------------------------------------
    Charge (ESU x 10^10)
                -0.0000
    Dipole Moment (Debye)
         X       1.1535      Y      -0.3058      Z       1.0789
       Tot       1.6088
    Quadrupole Moments (Debye-Ang)
        XX     -52.9446     XY       2.2411     YY     -43.7567
        XZ       0.4395     YZ       1.0007     ZZ     -48.6318

 Total job time:  158.42s(wall), 156.52s(cpu)
        *  Thank you very much for using Q-Chem.  Have a nice day.  *
