 Q-Chem 5.4, Q-Chem, Inc., Pleasanton, CA (2021)
 Q-Chem 5.4.0 for Intel X86 EM64T Linux

User input:
--------------------------------------------------------------
$molecule
0 1
C	-0.439388	-0.417594	0.011472
C	0.115712	0.243906	1.110872
C	1.005312	1.304106	0.788172
H	-0.121288	-0.038594	2.147572
C	1.147212	1.473106	-0.601028
S	0.166412	0.304306	-1.475328
C	1.704512	2.137306	1.826072
H	1.430912	1.811306	2.848172
H	1.441512	3.212106	1.737672
H	2.808712	2.064906	1.737672
C	-0.439388	-1.858294	0.011472
H	0.387912	-1.858494	0.705772
H	0.087212	-2.562094	-0.616028
H	-1.048188	-2.377194	0.737072
H	1.757312	2.200206	-1.150128
$end

$rem
JOBTYPE		SP
EXCHANGE	HF
CORRELATION	pRIMP2
BASIS		cc-pvtz
METHOD		rimp2
AUX_BASIS	rimp2-cc-pvtz
SOLVENT_METHOD	PCM
PURECART	11111
SYMMETRY	false
MEM_TOTAL	110000
SCF_CONVERGENCE = 6
THRESH=10
$end

$solvent
dielectric 4.90
$end
--------------------------------------------------------------

             Standard Nuclear Orientation (Angstroms)
    I     Atom           X                Y                Z
 ----------------------------------------------------------------
    1      C      -0.4393880000    -0.4175940000     0.0114720000
    2      C       0.1157120000     0.2439060000     1.1108720000
    3      C       1.0053120000     1.3041060000     0.7881720000
    4      H      -0.1212880000    -0.0385940000     2.1475720000
    5      C       1.1472120000     1.4731060000    -0.6010280000
    6      S       0.1664120000     0.3043060000    -1.4753280000
    7      C       1.7045120000     2.1373060000     1.8260720000
    8      H       1.4309120000     1.8113060000     2.8481720000
    9      H       1.4415120000     3.2121060000     1.7376720000
   10      H       2.8087120000     2.0649060000     1.7376720000
   11      C      -0.4393880000    -1.8582940000     0.0114720000
   12      H       0.3879120000    -1.8584940000     0.7057720000
   13      H       0.0872120000    -2.5620940000    -0.6160280000
   14      H      -1.0481880000    -2.3771940000     0.7370720000
   15      H       1.7573120000     2.2002060000    -1.1501280000
 ----------------------------------------------------------------

   10    -629.3846793926      6.16e-07  Convergence criterion met
 Total energy in the final basis set =     -629.3846793926
        RIMP2         total energy =      -630.5705136367 a.u.

                    Orbital Energies (a.u.)
 --------------------------------------------------------------

 Alpha MOs
 -- Occupied --
-91.9786 -11.2711 -11.2606 -11.2486 -11.2327 -11.2278 -11.2127  -8.9785
 -6.6593  -6.6587  -6.6583  -1.1669  -1.0555  -0.9990  -0.9363  -0.8826
 -0.7442  -0.7250  -0.6451  -0.5889  -0.5765  -0.5738  -0.5549  -0.5440
 -0.5130  -0.4766  -0.4613  -0.4520  -0.3348  -0.2903

          Ground-State Mulliken Net Atomic Charges

     Atom                 Charge (a.u.)
  ----------------------------------------
      1 C                    -0.007785
      2 C                    -0.225598
      3 C                     0.019789
      4 H                     0.177342
      5 C                    -0.248716
      6 S                     0.011113
      7 C                    -0.269456
      8 H                     0.101541
      9 H                     0.107373
     10 H                     0.105361
     11 C                    -0.389993
     12 H                     0.145214
     13 H                     0.159257
     14 H                     0.120984
     15 H                     0.193576
  ----------------------------------------
  Sum of atomic charges =     0.000000

                    Cartesian Multipole Moments
 -----------------------------------------------------------------
    Charge (ESU x 10^10)
                -0.0000
    Dipole Moment (Debye)
         X       1.6127      Y      -0.2177      Z       1.9028
       Tot       2.5038
    Quadrupole Moments (Debye-Ang)
        XX     -51.2969     XY       3.2975     YY     -46.4936
        XZ      -0.2963     YZ      -0.6017     ZZ     -48.2395

 Total job time:  160.99s(wall), 158.81s(cpu)
        *  Thank you very much for using Q-Chem.  Have a nice day.  *
