 Q-Chem 5.4, Q-Chem, Inc., Pleasanton, CA (2021)
 Q-Chem 5.4.0 for Intel X86 EM64T Linux

User input:
--------------------------------------------------------------
$molecule
0 1
C	-0.234211	-0.535397	0.010669
C	0.061189	0.276103	1.110069
C	0.534489	1.576503	0.787369
H	-0.064911	-0.070397	2.146769
C	0.609989	1.783903	-0.601831
S	0.088089	0.350203	-1.476131
C	0.906589	2.598703	1.825269
H	0.760989	2.198703	2.847369
H	0.291789	3.518703	1.736869
H	1.968989	2.908303	1.736869
C	-0.234211	-1.976097	0.010669
H	0.135089	-1.975797	1.025569
H	-1.004011	-2.679897	0.290769
H	0.655789	-2.494997	-0.313231
H	0.934689	2.675903	-1.150931
$end

$rem
JOBTYPE		SP
EXCHANGE	HF
CORRELATION	pRIMP2
BASIS		cc-pvtz
METHOD		rimp2
AUX_BASIS	rimp2-cc-pvtz
SOLVENT_METHOD	PCM
PURECART	11111
SYMMETRY	false
MEM_TOTAL	110000
SCF_CONVERGENCE = 6
THRESH=10
$end

$solvent
dielectric 4.90
$end
--------------------------------------------------------------

   10    -629.4158960057      4.97e-07  Convergence criterion met
 Total energy in the final basis set =     -629.4158960057
        RIMP2         total energy =      -630.5954008005 a.u.
 Total job time:  158.95s(wall), 157.14s(cpu)
        *  Thank you very much for using Q-Chem.  Have a nice day.  *
 Q-Chem 5.4, Q-Chem, Inc., Pleasanton, CA (2021)
 Q-Chem 5.4.0 for Intel X86 EM64T Linux

User input:
--------------------------------------------------------------
$molecule
0 1
C	-0.234211	-0.535397	0.010669
C	0.061189	0.276103	1.110069
C	0.534489	1.576503	0.787369
H	-0.064911	-0.070397	2.146769
C	0.609989	1.783903	-0.601831
S	0.088089	0.350203	-1.476131
C	0.906589	2.598703	1.825269
H	0.760989	2.198703	2.847369
H	0.291789	3.518703	1.736869
H	1.968989	2.908303	1.736869
C	-0.234211	-1.976097	0.010669
H	0.135089	-1.975797	1.025569
H	-1.004011	-2.679897	0.290769
H	0.655789	-2.494997	-0.313231
H	0.934689	2.675903	-1.150931
$end

$rem
JOBTYPE		SP
EXCHANGE	HF
CORRELATION	pRIMP2
BASIS		cc-pvtz
METHOD		rimp2
AUX_BASIS	rimp2-cc-pvtz
SOLVENT_METHOD	PCM
PURECART	11111
SYMMETRY	false
MEM_TOTAL	110000
SCF_CONVERGENCE = 6
THRESH=10
$end

$solvent
dielectric 4.90
$end
--------------------------------------------------------------

             Standard Nuclear Orientation (Angstroms)
    I     Atom           X                Y                Z
 ----------------------------------------------------------------
    1      C      -0.2342110000    -0.5353970000     0.0106690000
    2      C       0.0611890000     0.2761030000     1.1100690000
    3      C       0.5344890000     1.5765030000     0.7873690000
    4      H      -0.0649110000    -0.0703970000     2.1467690000
    5      C       0.6099890000     1.7839030000    -0.6018310000
    6      S       0.0880890000     0.3502030000    -1.4761310000
    7      C       0.9065890000     2.5987030000     1.8252690000
    8      H       0.7609890000     2.1987030000     2.8473690000
    9      H       0.2917890000     3.5187030000     1.7368690000
   10      H       1.9689890000     2.9083030000     1.7368690000
   11      C      -0.2342110000    -1.9760970000     0.0106690000
   12      H       0.1350890000    -1.9757970000     1.0255690000
   13      H      -1.0040110000    -2.6798970000     0.2907690000
   14      H       0.6557890000    -2.4949970000    -0.3132310000
   15      H       0.9346890000     2.6759030000    -1.1509310000
 ----------------------------------------------------------------

   10    -629.4158960057      4.97e-07  Convergence criterion met
 Total energy in the final basis set =     -629.4158960057
        RIMP2         total energy =      -630.5954008005 a.u.

                    Orbital Energies (a.u.)
 --------------------------------------------------------------

 Alpha MOs
 -- Occupied --
-91.9758 -11.2761 -11.2579 -11.2471 -11.2337 -11.2275 -11.2152  -8.9759
 -6.6568  -6.6562  -6.6557  -1.1623  -1.0542  -0.9994  -0.9388  -0.8839
 -0.7426  -0.7246  -0.6479  -0.5914  -0.5771  -0.5667  -0.5588  -0.5422
 -0.5108  -0.4818  -0.4684  -0.4407  -0.3366  -0.3016

          Ground-State Mulliken Net Atomic Charges

     Atom                 Charge (a.u.)
  ----------------------------------------
      1 C                     0.046403
      2 C                    -0.267144
      3 C                     0.033840
      4 H                     0.176334
      5 C                    -0.250573
      6 S                    -0.005130
      7 C                    -0.272070
      8 H                     0.101174
      9 H                     0.107190
     10 H                     0.106877
     11 C                    -0.376905
     12 H                     0.128545
     13 H                     0.143943
     14 H                     0.134755
     15 H                     0.192760
  ----------------------------------------
  Sum of atomic charges =     0.000000

                    Cartesian Multipole Moments
 -----------------------------------------------------------------
    Charge (ESU x 10^10)
                -0.0000
    Dipole Moment (Debye)
         X       0.7682      Y      -0.0975      Z       2.1129
       Tot       2.2504
    Quadrupole Moments (Debye-Ang)
        XX     -52.9476     XY       2.3869     YY     -43.4402
        XZ      -0.2669     YZ      -1.0687     ZZ     -48.7875

 Total job time:  159.93s(wall), 157.52s(cpu)
        *  Thank you very much for using Q-Chem.  Have a nice day.  *
