 Q-Chem 5.4, Q-Chem, Inc., Pleasanton, CA (2021)
 Q-Chem 5.4.0 for Intel X86 EM64T Linux

User input:
--------------------------------------------------------------
$molecule
0 1
C	-0.343539	-0.485419	0.012832
C	0.088261	0.262481	1.112232
C	0.780261	1.460981	0.789532
H	-0.096139	-0.056919	2.148932
C	0.890561	1.652081	-0.599668
S	0.127661	0.330681	-1.473968
C	1.324161	2.402981	1.827432
H	1.111361	2.034381	2.849532
H	0.878461	3.415781	1.739032
H	2.424161	2.523381	1.739032
C	-0.343539	-1.926119	0.012832
H	0.671261	-1.926319	0.382332
H	-0.063339	-2.629919	-0.756968
H	-0.667439	-2.445019	0.902832
H	1.365261	2.474081	-1.148768
$end

$rem
JOBTYPE		SP
EXCHANGE	HF
CORRELATION	pRIMP2
BASIS		cc-pvtz
METHOD		rimp2
AUX_BASIS	rimp2-cc-pvtz
SOLVENT_METHOD	PCM
PURECART	11111
SYMMETRY	false
MEM_TOTAL	110000
SCF_CONVERGENCE = 6
THRESH=10
$end

$solvent
dielectric 4.90
$end
--------------------------------------------------------------

             Standard Nuclear Orientation (Angstroms)
    I     Atom           X                Y                Z
 ----------------------------------------------------------------
    1      C      -0.3435390000    -0.4854190000     0.0128320000
    2      C       0.0882610000     0.2624810000     1.1122320000
    3      C       0.7802610000     1.4609810000     0.7895320000
    4      H      -0.0961390000    -0.0569190000     2.1489320000
    5      C       0.8905610000     1.6520810000    -0.5996680000
    6      S       0.1276610000     0.3306810000    -1.4739680000
    7      C       1.3241610000     2.4029810000     1.8274320000
    8      H       1.1113610000     2.0343810000     2.8495320000
    9      H       0.8784610000     3.4157810000     1.7390320000
   10      H       2.4241610000     2.5233810000     1.7390320000
   11      C      -0.3435390000    -1.9261190000     0.0128320000
   12      H       0.6712610000    -1.9263190000     0.3823320000
   13      H      -0.0633390000    -2.6299190000    -0.7569680000
   14      H      -0.6674390000    -2.4450190000     0.9028320000
   15      H       1.3652610000     2.4740810000    -1.1487680000
 ----------------------------------------------------------------

   10    -629.4058611784      6.04e-07  Convergence criterion met
 Total energy in the final basis set =     -629.4058611784
        RIMP2         total energy =      -630.5862340487 a.u.

                    Orbital Energies (a.u.)
 --------------------------------------------------------------

 Alpha MOs
 -- Occupied --
-91.9783 -11.2809 -11.2533 -11.2483 -11.2271 -11.2261 -11.2192  -8.9781
 -6.6591  -6.6585  -6.6580  -1.1641  -1.0562  -0.9979  -0.9387  -0.8825
 -0.7439  -0.7213  -0.6464  -0.5889  -0.5779  -0.5706  -0.5544  -0.5447
 -0.5095  -0.4860  -0.4632  -0.4564  -0.3374  -0.2879

          Ground-State Mulliken Net Atomic Charges

     Atom                 Charge (a.u.)
  ----------------------------------------
      1 C                     0.032422
      2 C                    -0.278290
      3 C                     0.044457
      4 H                     0.174954
      5 C                    -0.272576
      6 S                     0.005039
      7 C                    -0.270234
      8 H                     0.101578
      9 H                     0.107597
     10 H                     0.106190
     11 C                    -0.384658
     12 H                     0.151727
     13 H                     0.159277
     14 H                     0.129730
     15 H                     0.192786
  ----------------------------------------
  Sum of atomic charges =     0.000000

                    Cartesian Multipole Moments
 -----------------------------------------------------------------
    Charge (ESU x 10^10)
                -0.0000
    Dipole Moment (Debye)
         X       1.3093      Y      -0.5674      Z       1.6772
       Tot       2.2021
    Quadrupole Moments (Debye-Ang)
        XX     -52.7450     XY       2.5446     YY     -44.4492
        XZ      -0.0345     YZ      -0.1541     ZZ     -48.4486

 Total job time:  161.10s(wall), 158.70s(cpu)
        *  Thank you very much for using Q-Chem.  Have a nice day.  *
