 Q-Chem 5.4, Q-Chem, Inc., Pleasanton, CA (2021)
 Q-Chem 5.4.0 for Intel X86 EM64T Linux

User input:
--------------------------------------------------------------
$molecule
0 1
C	0.004471	-0.576312	0.016960
C	0.004471	0.287288	1.116360
C	0.004571	1.671188	0.793660
H	0.004471	-0.081512	2.153060
C	0.004571	1.891888	-0.595540
S	0.004471	0.366088	-1.469840
C	0.004571	2.758988	1.831560
H	0.004571	2.333288	2.853660
H	-0.887829	3.413288	1.743160
H	0.896971	3.413188	1.743160
C	0.004471	-2.017012	0.016960
H	-0.930729	-2.016712	-0.523140
H	0.414071	-2.720812	-0.692440
H	-0.469129	-2.535912	0.837160
H	0.004571	2.841088	-1.144640
$end

$rem
JOBTYPE		SP
EXCHANGE	HF
CORRELATION	pRIMP2
BASIS		cc-pvtz
METHOD		rimp2
AUX_BASIS	rimp2-cc-pvtz
SOLVENT_METHOD	PCM
PURECART	11111
SYMMETRY	false
MEM_TOTAL	110000
SCF_CONVERGENCE = 6
THRESH=10
$end

$solvent
dielectric 4.90
$end
--------------------------------------------------------------

             Standard Nuclear Orientation (Angstroms)
    I     Atom           X                Y                Z
 ----------------------------------------------------------------
    1      C       0.0044710000    -0.5763120000     0.0169600000
    2      C       0.0044710000     0.2872880000     1.1163600000
    3      C       0.0045710000     1.6711880000     0.7936600000
    4      H       0.0044710000    -0.0815120000     2.1530600000
    5      C       0.0045710000     1.8918880000    -0.5955400000
    6      S       0.0044710000     0.3660880000    -1.4698400000
    7      C       0.0045710000     2.7589880000     1.8315600000
    8      H       0.0045710000     2.3332880000     2.8536600000
    9      H      -0.8878290000     3.4132880000     1.7431600000
   10      H       0.8969710000     3.4131880000     1.7431600000
   11      C       0.0044710000    -2.0170120000     0.0169600000
   12      H      -0.9307290000    -2.0167120000    -0.5231400000
   13      H       0.4140710000    -2.7208120000    -0.6924400000
   14      H      -0.4691290000    -2.5359120000     0.8371600000
   15      H       0.0045710000     2.8410880000    -1.1446400000
 ----------------------------------------------------------------

   10    -629.4243319991      6.57e-07  Convergence criterion met
 Total energy in the final basis set =     -629.4243319991
        RIMP2         total energy =      -630.5998756304 a.u.

                    Orbital Energies (a.u.)
 --------------------------------------------------------------

 Alpha MOs
 -- Occupied --
-91.9777 -11.2832 -11.2515 -11.2468 -11.2265 -11.2254 -11.2206  -8.9777
 -6.6587  -6.6582  -6.6575  -1.1604  -1.0560  -0.9965  -0.9439  -0.8823
 -0.7454  -0.7184  -0.6477  -0.5905  -0.5759  -0.5685  -0.5502  -0.5476
 -0.5080  -0.4916  -0.4654  -0.4542  -0.3391  -0.2920

          Ground-State Mulliken Net Atomic Charges

     Atom                 Charge (a.u.)
  ----------------------------------------
      1 C                     0.055222
      2 C                    -0.287479
      3 C                     0.041543
      4 H                     0.181166
      5 C                    -0.267919
      6 S                    -0.008642
      7 C                    -0.273853
      8 H                     0.101326
      9 H                     0.107214
     10 H                     0.107315
     11 C                    -0.374433
     12 H                     0.131939
     13 H                     0.154788
     14 H                     0.138261
     15 H                     0.193553
  ----------------------------------------
  Sum of atomic charges =     0.000000

                    Cartesian Multipole Moments
 -----------------------------------------------------------------
    Charge (ESU x 10^10)
                -0.0000
    Dipole Moment (Debye)
         X      -0.6213      Y      -0.5320      Z       1.0973
       Tot       1.3687
    Quadrupole Moments (Debye-Ang)
        XX     -54.2528     XY       1.2688     YY     -41.7606
        XZ      -0.2844     YZ       1.1485     ZZ     -48.6702

 Total job time:  159.53s(wall), 157.01s(cpu)
        *  Thank you very much for using Q-Chem.  Have a nice day.  *
