 Q-Chem 5.4, Q-Chem, Inc., Pleasanton, CA (2021)
 Q-Chem 5.4.0 for Intel X86 EM64T Linux

User input:
--------------------------------------------------------------
$molecule
0 1
C	-0.291451	-0.512744	0.016151
C	0.073549	0.269956	1.115551
C	0.658449	1.524156	0.792851
H	-0.082351	-0.064344	2.152251
C	0.751749	1.724156	-0.596349
S	0.106849	0.341356	-1.470649
C	1.118149	2.509956	1.830751
H	0.938249	2.124256	2.852851
H	0.585849	3.480156	1.742351
H	2.203449	2.725856	1.742351
C	-0.291451	-1.953444	0.016151
H	0.723449	-1.953644	-0.353149
H	-0.571551	-2.657244	-0.753649
H	0.032449	-2.472344	0.906151
H	1.152849	2.584456	-1.145449
$end

$rem
JOBTYPE		SP
EXCHANGE	HF
CORRELATION	pRIMP2
BASIS		cc-pvtz
METHOD		rimp2
AUX_BASIS	rimp2-cc-pvtz
SOLVENT_METHOD	PCM
PURECART	11111
SYMMETRY	false
MEM_TOTAL	110000
SCF_CONVERGENCE = 6
THRESH=10
$end

$solvent
dielectric 4.90
$end
--------------------------------------------------------------

             Standard Nuclear Orientation (Angstroms)
    I     Atom           X                Y                Z
 ----------------------------------------------------------------
    1      C      -0.2914510000    -0.5127440000     0.0161510000
    2      C       0.0735490000     0.2699560000     1.1155510000
    3      C       0.6584490000     1.5241560000     0.7928510000
    4      H      -0.0823510000    -0.0643440000     2.1522510000
    5      C       0.7517490000     1.7241560000    -0.5963490000
    6      S       0.1068490000     0.3413560000    -1.4706490000
    7      C       1.1181490000     2.5099560000     1.8307510000
    8      H       0.9382490000     2.1242560000     2.8528510000
    9      H       0.5858490000     3.4801560000     1.7423510000
   10      H       2.2034490000     2.7258560000     1.7423510000
   11      C      -0.2914510000    -1.9534440000     0.0161510000
   12      H       0.7234490000    -1.9536440000    -0.3531490000
   13      H      -0.5715510000    -2.6572440000    -0.7536490000
   14      H       0.0324490000    -2.4723440000     0.9061510000
   15      H       1.1528490000     2.5844560000    -1.1454490000
 ----------------------------------------------------------------

   10    -629.4147347219      6.90e-07  Convergence criterion met
 Total energy in the final basis set =     -629.4147347219
        RIMP2         total energy =      -630.5923317893 a.u.

                    Orbital Energies (a.u.)
 --------------------------------------------------------------

 Alpha MOs
 -- Occupied --
-91.9755 -11.2820 -11.2536 -11.2474 -11.2272 -11.2269 -11.2210  -8.9759
 -6.6569  -6.6563  -6.6557  -1.1633  -1.0568  -0.9962  -0.9421  -0.8816
 -0.7459  -0.7200  -0.6467  -0.5894  -0.5795  -0.5669  -0.5506  -0.5473
 -0.5073  -0.4945  -0.4634  -0.4537  -0.3398  -0.2896

          Ground-State Mulliken Net Atomic Charges

     Atom                 Charge (a.u.)
  ----------------------------------------
      1 C                     0.060651
      2 C                    -0.325651
      3 C                     0.063025
      4 H                     0.177808
      5 C                    -0.271448
      6 S                    -0.005819
      7 C                    -0.270689
      8 H                     0.101541
      9 H                     0.107682
     10 H                     0.106981
     11 C                    -0.371112
     12 H                     0.144511
     13 H                     0.153015
     14 H                     0.137008
     15 H                     0.192497
  ----------------------------------------
  Sum of atomic charges =     0.000000

                    Cartesian Multipole Moments
 -----------------------------------------------------------------
    Charge (ESU x 10^10)
                -0.0000
    Dipole Moment (Debye)
         X       1.2149      Y      -0.5697      Z       1.2671
       Tot       1.8456
    Quadrupole Moments (Debye-Ang)
        XX     -53.2354     XY       2.1623     YY     -43.5486
        XZ       0.3595     YZ       0.8559     ZZ     -48.6044

 Total job time:  158.19s(wall), 156.45s(cpu)
        *  Thank you very much for using Q-Chem.  Have a nice day.  *
