 Q-Chem 5.4, Q-Chem, Inc., Pleasanton, CA (2021)
 Q-Chem 5.4.0 for Intel X86 EM64T Linux

User input:
--------------------------------------------------------------
$molecule
0 1
C	-0.175297	-0.553191	0.010154
C	0.048203	0.281009	1.109554
C	0.406403	1.617709	0.786854
H	-0.047197	-0.075291	2.146254
C	0.463603	1.830809	-0.602346
S	0.068603	0.357109	-1.476646
C	0.688003	2.668409	1.824754
H	0.577803	2.257309	2.846854
H	-0.004597	3.531409	1.736354
H	1.719303	3.069409	1.736354
C	-0.175297	-1.993891	0.010154
H	-0.362997	-1.993591	1.073754
H	-0.981997	-2.697691	-0.132146
H	0.757403	-2.512791	0.174654
H	0.709303	2.747709	-1.151446
$end

$rem
JOBTYPE		SP
EXCHANGE	HF
CORRELATION	pRIMP2
BASIS		cc-pvtz
METHOD		rimp2
AUX_BASIS	rimp2-cc-pvtz
SOLVENT_METHOD	PCM
PURECART	11111
SYMMETRY	false
MEM_TOTAL	110000
SCF_CONVERGENCE = 6
THRESH=10
$end

$solvent
dielectric 4.90
$end
--------------------------------------------------------------

             Standard Nuclear Orientation (Angstroms)
    I     Atom           X                Y                Z
 ----------------------------------------------------------------
    1      C      -0.1752970000    -0.5531910000     0.0101540000
    2      C       0.0482030000     0.2810090000     1.1095540000
    3      C       0.4064030000     1.6177090000     0.7868540000
    4      H      -0.0471970000    -0.0752910000     2.1462540000
    5      C       0.4636030000     1.8308090000    -0.6023460000
    6      S       0.0686030000     0.3571090000    -1.4766460000
    7      C       0.6880030000     2.6684090000     1.8247540000
    8      H       0.5778030000     2.2573090000     2.8468540000
    9      H      -0.0045970000     3.5314090000     1.7363540000
   10      H       1.7193030000     3.0694090000     1.7363540000
   11      C      -0.1752970000    -1.9938910000     0.0101540000
   12      H      -0.3629970000    -1.9935910000     1.0737540000
   13      H      -0.9819970000    -2.6976910000    -0.1321460000
   14      H       0.7574030000    -2.5127910000     0.1746540000
   15      H       0.7093030000     2.7477090000    -1.1514460000
 ----------------------------------------------------------------

   10    -629.4213171295      4.94e-07  Convergence criterion met
 Total energy in the final basis set =     -629.4213171295
        RIMP2         total energy =      -630.6000926636 a.u.

                    Orbital Energies (a.u.)
 --------------------------------------------------------------

 Alpha MOs
 -- Occupied --
-91.9744 -11.2763 -11.2584 -11.2471 -11.2352 -11.2275 -11.2161  -8.9746
 -6.6555  -6.6549  -6.6544  -1.1616  -1.0540  -0.9996  -0.9393  -0.8844
 -0.7424  -0.7245  -0.6480  -0.5921  -0.5781  -0.5661  -0.5595  -0.5420
 -0.5108  -0.4848  -0.4673  -0.4364  -0.3380  -0.3039

          Ground-State Mulliken Net Atomic Charges

     Atom                 Charge (a.u.)
  ----------------------------------------
      1 C                     0.051813
      2 C                    -0.273152
      3 C                     0.037827
      4 H                     0.177300
      5 C                    -0.250992
      6 S                    -0.007013
      7 C                    -0.272299
      8 H                     0.101153
      9 H                     0.107043
     10 H                     0.107275
     11 C                    -0.367493
     12 H                     0.118171
     13 H                     0.149835
     14 H                     0.127354
     15 H                     0.193179
  ----------------------------------------
  Sum of atomic charges =     0.000000

                    Cartesian Multipole Moments
 -----------------------------------------------------------------
    Charge (ESU x 10^10)
                -0.0000
    Dipole Moment (Debye)
         X       0.3067      Y      -0.0544      Z       2.1570
       Tot       2.1794
    Quadrupole Moments (Debye-Ang)
        XX     -53.1149     XY       2.5888     YY     -42.8209
        XZ       0.0588     YZ      -1.0547     ZZ     -48.9389

 Total job time:  156.62s(wall), 155.22s(cpu)
        *  Thank you very much for using Q-Chem.  Have a nice day.  *
