 Q-Chem 5.4, Q-Chem, Inc., Pleasanton, CA (2021)
 Q-Chem 5.4.0 for Intel X86 EM64T Linux

User input:
--------------------------------------------------------------
$molecule
0 1
C	-0.341105	-0.485421	0.019521
C	0.090695	0.262479	1.118921
C	0.782695	1.460979	0.796221
H	-0.093705	-0.056921	2.155621
C	0.892995	1.652079	-0.592979
S	0.130095	0.330679	-1.467279
C	1.326595	2.402979	1.834121
H	1.113795	2.034379	2.856221
H	0.880895	3.415779	1.745721
H	2.426595	2.523379	1.745721
C	-0.341105	-1.926121	0.019521
H	0.198995	-1.925821	-0.915679
H	0.368295	-2.629921	0.429121
H	-1.161305	-2.445021	-0.454079
H	1.367695	2.474079	-1.142079
$end

$rem
JOBTYPE		SP
EXCHANGE	HF
CORRELATION	pRIMP2
BASIS		cc-pvtz
METHOD		rimp2
AUX_BASIS	rimp2-cc-pvtz
SOLVENT_METHOD	PCM
PURECART	11111
SYMMETRY	false
MEM_TOTAL	110000
SCF_CONVERGENCE = 6
THRESH=10
$end

$solvent
dielectric 4.90
$end
--------------------------------------------------------------

             Standard Nuclear Orientation (Angstroms)
    I     Atom           X                Y                Z
 ----------------------------------------------------------------
    1      C      -0.3411050000    -0.4854210000     0.0195210000
    2      C       0.0906950000     0.2624790000     1.1189210000
    3      C       0.7826950000     1.4609790000     0.7962210000
    4      H      -0.0937050000    -0.0569210000     2.1556210000
    5      C       0.8929950000     1.6520790000    -0.5929790000
    6      S       0.1300950000     0.3306790000    -1.4672790000
    7      C       1.3265950000     2.4029790000     1.8341210000
    8      H       1.1137950000     2.0343790000     2.8562210000
    9      H       0.8808950000     3.4157790000     1.7457210000
   10      H       2.4265950000     2.5233790000     1.7457210000
   11      C      -0.3411050000    -1.9261210000     0.0195210000
   12      H       0.1989950000    -1.9258210000    -0.9156790000
   13      H       0.3682950000    -2.6299210000     0.4291210000
   14      H      -1.1613050000    -2.4450210000    -0.4540790000
   15      H       1.3676950000     2.4740790000    -1.1420790000
 ----------------------------------------------------------------

   10    -629.4008707784      5.93e-07  Convergence criterion met
 Total energy in the final basis set =     -629.4008707784
        RIMP2         total energy =      -630.5820311888 a.u.

                    Orbital Energies (a.u.)
 --------------------------------------------------------------

 Alpha MOs
 -- Occupied --
-91.9761 -11.2703 -11.2617 -11.2470 -11.2340 -11.2272 -11.2131  -8.9767
 -6.6576  -6.6570  -6.6564  -1.1641  -1.0557  -0.9943  -0.9452  -0.8804
 -0.7489  -0.7205  -0.6473  -0.5877  -0.5782  -0.5657  -0.5524  -0.5477
 -0.5123  -0.4815  -0.4632  -0.4444  -0.3383  -0.2984

          Ground-State Mulliken Net Atomic Charges

     Atom                 Charge (a.u.)
  ----------------------------------------
      1 C                     0.023489
      2 C                    -0.270265
      3 C                     0.045905
      4 H                     0.179658
      5 C                    -0.246893
      6 S                    -0.005959
      7 C                    -0.271107
      8 H                     0.101750
      9 H                     0.107415
     10 H                     0.106188
     11 C                    -0.371666
     12 H                     0.128594
     13 H                     0.156179
     14 H                     0.121914
     15 H                     0.194795
  ----------------------------------------
  Sum of atomic charges =     0.000000

                    Cartesian Multipole Moments
 -----------------------------------------------------------------
    Charge (ESU x 10^10)
                -0.0000
    Dipole Moment (Debye)
         X       1.2087      Y       0.0125      Z       0.9902
       Tot       1.5625
    Quadrupole Moments (Debye-Ang)
        XX     -52.0780     XY       3.0099     YY     -44.7851
        XZ       0.4137     YZ       1.2456     ZZ     -48.5759

 Total job time:  159.24s(wall), 158.51s(cpu)
        *  Thank you very much for using Q-Chem.  Have a nice day.  *
