 Q-Chem 5.4, Q-Chem, Inc., Pleasanton, CA (2021)
 Q-Chem 5.4.0 for Intel X86 EM64T Linux

User input:
--------------------------------------------------------------
$molecule
0 1
C	-0.291574	-0.512744	0.015308
C	0.073426	0.269956	1.114708
C	0.658326	1.524156	0.792008
H	-0.082474	-0.064344	2.151408
C	0.751626	1.724156	-0.597192
S	0.106726	0.341356	-1.471492
C	1.118026	2.509956	1.829908
H	0.938126	2.124256	2.852008
H	0.585726	3.480156	1.741508
H	2.203326	2.725856	1.741508
C	-0.291574	-1.953444	0.015308
H	0.772026	-1.953644	-0.172092
H	-0.433774	-2.657244	-0.791492
H	-0.127074	-2.472344	0.948008
H	1.152726	2.584456	-1.146292
$end

$rem
JOBTYPE		SP
EXCHANGE	HF
CORRELATION	pRIMP2
BASIS		cc-pvtz
METHOD		rimp2
AUX_BASIS	rimp2-cc-pvtz
SOLVENT_METHOD	PCM
PURECART	11111
SYMMETRY	false
MEM_TOTAL	110000
SCF_CONVERGENCE = 6
THRESH=10
$end

$solvent
dielectric 4.90
$end
--------------------------------------------------------------

             Standard Nuclear Orientation (Angstroms)
    I     Atom           X                Y                Z
 ----------------------------------------------------------------
    1      C      -0.2915740000    -0.5127440000     0.0153080000
    2      C       0.0734260000     0.2699560000     1.1147080000
    3      C       0.6583260000     1.5241560000     0.7920080000
    4      H      -0.0824740000    -0.0643440000     2.1514080000
    5      C       0.7516260000     1.7241560000    -0.5971920000
    6      S       0.1067260000     0.3413560000    -1.4714920000
    7      C       1.1180260000     2.5099560000     1.8299080000
    8      H       0.9381260000     2.1242560000     2.8520080000
    9      H       0.5857260000     3.4801560000     1.7415080000
   10      H       2.2033260000     2.7258560000     1.7415080000
   11      C      -0.2915740000    -1.9534440000     0.0153080000
   12      H       0.7720260000    -1.9536440000    -0.1720920000
   13      H      -0.4337740000    -2.6572440000    -0.7914920000
   14      H      -0.1270740000    -2.4723440000     0.9480080000
   15      H       1.1527260000     2.5844560000    -1.1462920000
 ----------------------------------------------------------------

   10    -629.4152346756      6.91e-07  Convergence criterion met
 Total energy in the final basis set =     -629.4152346756
        RIMP2         total energy =      -630.5927427319 a.u.

                    Orbital Energies (a.u.)
 --------------------------------------------------------------

 Alpha MOs
 -- Occupied --
-91.9762 -11.2832 -11.2525 -11.2476 -11.2269 -11.2259 -11.2219  -8.9764
 -6.6574  -6.6568  -6.6562  -1.1632  -1.0569  -0.9966  -0.9413  -0.8819
 -0.7453  -0.7200  -0.6468  -0.5890  -0.5797  -0.5676  -0.5513  -0.5467
 -0.5072  -0.4944  -0.4637  -0.4553  -0.3394  -0.2885

          Ground-State Mulliken Net Atomic Charges

     Atom                 Charge (a.u.)
  ----------------------------------------
      1 C                     0.059872
      2 C                    -0.324017
      3 C                     0.062718
      4 H                     0.176527
      5 C                    -0.276007
      6 S                    -0.003826
      7 C                    -0.270718
      8 H                     0.101566
      9 H                     0.107660
     10 H                     0.106940
     11 C                    -0.371744
     12 H                     0.147739
     13 H                     0.155121
     14 H                     0.135689
     15 H                     0.192478
  ----------------------------------------
  Sum of atomic charges =     0.000000

                    Cartesian Multipole Moments
 -----------------------------------------------------------------
    Charge (ESU x 10^10)
                -0.0000
    Dipole Moment (Debye)
         X       1.2253      Y      -0.6469      Z       1.3583
       Tot       1.9403
    Quadrupole Moments (Debye-Ang)
        XX     -53.3164     XY       2.0928     YY     -43.4943
        XZ       0.2756     YZ       0.6223     ZZ     -48.5847

 Total job time:  157.73s(wall), 156.43s(cpu)
        *  Thank you very much for using Q-Chem.  Have a nice day.  *
