 Q-Chem 5.4, Q-Chem, Inc., Pleasanton, CA (2021)
 Q-Chem 5.4.0 for Intel X86 EM64T Linux

User input:
--------------------------------------------------------------
$molecule
0 1
C	-0.170722	-0.553189	0.015607
C	0.052778	0.281011	1.115007
C	0.410978	1.617711	0.792307
H	-0.042622	-0.075289	2.151707
C	0.468178	1.830811	-0.596893
S	0.073178	0.357111	-1.471193
C	0.692578	2.668411	1.830207
H	0.582378	2.257311	2.852307
H	-0.000022	3.531411	1.741807
H	1.723878	3.069411	1.741807
C	-0.170722	-1.993889	0.015607
H	-1.250722	-1.994089	0.015507
H	-0.170822	-2.697689	0.834807
H	-0.170722	-2.512789	-0.931493
H	0.713878	2.747711	-1.145993
$end

$rem
JOBTYPE		SP
EXCHANGE	HF
CORRELATION	pRIMP2
BASIS		cc-pvtz
METHOD		rimp2
AUX_BASIS	rimp2-cc-pvtz
SOLVENT_METHOD	PCM
PURECART	11111
SYMMETRY	false
MEM_TOTAL	110000
SCF_CONVERGENCE = 6
THRESH=10
$end

$solvent
dielectric 4.90
$end
--------------------------------------------------------------

             Standard Nuclear Orientation (Angstroms)
    I     Atom           X                Y                Z
 ----------------------------------------------------------------
    1      C      -0.1707220000    -0.5531890000     0.0156070000
    2      C       0.0527780000     0.2810110000     1.1150070000
    3      C       0.4109780000     1.6177110000     0.7923070000
    4      H      -0.0426220000    -0.0752890000     2.1517070000
    5      C       0.4681780000     1.8308110000    -0.5968930000
    6      S       0.0731780000     0.3571110000    -1.4711930000
    7      C       0.6925780000     2.6684110000     1.8302070000
    8      H       0.5823780000     2.2573110000     2.8523070000
    9      H      -0.0000220000     3.5314110000     1.7418070000
   10      H       1.7238780000     3.0694110000     1.7418070000
   11      C      -0.1707220000    -1.9938890000     0.0156070000
   12      H      -1.2507220000    -1.9940890000     0.0155070000
   13      H      -0.1708220000    -2.6976890000     0.8348070000
   14      H      -0.1707220000    -2.5127890000    -0.9314930000
   15      H       0.7138780000     2.7477110000    -1.1459930000
 ----------------------------------------------------------------

   10    -629.4168730993      6.72e-07  Convergence criterion met
 Total energy in the final basis set =     -629.4168730993
        RIMP2         total energy =      -630.5938316525 a.u.

                    Orbital Energies (a.u.)
 --------------------------------------------------------------

 Alpha MOs
 -- Occupied --
-91.9785 -11.2827 -11.2502 -11.2469 -11.2263 -11.2238 -11.2201  -8.9783
 -6.6593  -6.6587  -6.6581  -1.1602  -1.0556  -0.9969  -0.9426  -0.8826
 -0.7440  -0.7189  -0.6487  -0.5859  -0.5732  -0.5683  -0.5544  -0.5459
 -0.5089  -0.4945  -0.4607  -0.4572  -0.3381  -0.2876

          Ground-State Mulliken Net Atomic Charges

     Atom                 Charge (a.u.)
  ----------------------------------------
      1 C                     0.051578
      2 C                    -0.301175
      3 C                     0.050816
      4 H                     0.176195
      5 C                    -0.278672
      6 S                     0.003844
      7 C                    -0.272863
      8 H                     0.101363
      9 H                     0.107144
     10 H                     0.107069
     11 C                    -0.380152
     12 H                     0.138513
     13 H                     0.164424
     14 H                     0.138923
     15 H                     0.192993
  ----------------------------------------
  Sum of atomic charges =     0.000000

                    Cartesian Multipole Moments
 -----------------------------------------------------------------
    Charge (ESU x 10^10)
                -0.0000
    Dipole Moment (Debye)
         X      -0.4392      Y      -0.6486      Z       1.4011
       Tot       1.6052
    Quadrupole Moments (Debye-Ang)
        XX     -53.6347     XY       3.7766     YY     -42.4512
        XZ       0.0345     YZ       0.1693     ZZ     -48.4997

 Total job time:  155.40s(wall), 154.30s(cpu)
        *  Thank you very much for using Q-Chem.  Have a nice day.  *
