 Q-Chem 5.4, Q-Chem, Inc., Pleasanton, CA (2021)
 Q-Chem 5.4.0 for Intel X86 EM64T Linux

User input:
--------------------------------------------------------------
$molecule
0 1
C	-0.437969	-0.417594	0.010542
C	0.117131	0.243906	1.109942
C	1.006731	1.304106	0.787242
H	-0.119869	-0.038594	2.146642
C	1.148631	1.473106	-0.601958
S	0.167831	0.304306	-1.476258
C	1.705931	2.137306	1.825142
H	1.432331	1.811306	2.847242
H	1.442931	3.212106	1.736742
H	2.810131	2.064906	1.736742
C	-0.437969	-1.858294	0.010542
H	0.101931	-1.858494	0.945942
H	0.271531	-2.562094	-0.398958
H	-1.258169	-2.377194	0.484142
H	1.758731	2.200206	-1.151058
$end

$rem
JOBTYPE		SP
EXCHANGE	HF
CORRELATION	pRIMP2
BASIS		cc-pvtz
METHOD		rimp2
AUX_BASIS	rimp2-cc-pvtz
SOLVENT_METHOD	PCM
PURECART	11111
SYMMETRY	false
MEM_TOTAL	110000
SCF_CONVERGENCE = 6
THRESH=10
$end

$solvent
dielectric 4.90
$end
--------------------------------------------------------------

             Standard Nuclear Orientation (Angstroms)
    I     Atom           X                Y                Z
 ----------------------------------------------------------------
    1      C      -0.4379690000    -0.4175940000     0.0105420000
    2      C       0.1171310000     0.2439060000     1.1099420000
    3      C       1.0067310000     1.3041060000     0.7872420000
    4      H      -0.1198690000    -0.0385940000     2.1466420000
    5      C       1.1486310000     1.4731060000    -0.6019580000
    6      S       0.1678310000     0.3043060000    -1.4762580000
    7      C       1.7059310000     2.1373060000     1.8251420000
    8      H       1.4323310000     1.8113060000     2.8472420000
    9      H       1.4429310000     3.2121060000     1.7367420000
   10      H       2.8101310000     2.0649060000     1.7367420000
   11      C      -0.4379690000    -1.8582940000     0.0105420000
   12      H       0.1019310000    -1.8584940000     0.9459420000
   13      H       0.2715310000    -2.5620940000    -0.3989580000
   14      H      -1.2581690000    -2.3771940000     0.4841420000
   15      H       1.7587310000     2.2002060000    -1.1510580000
 ----------------------------------------------------------------

   10    -629.3839214869      6.04e-07  Convergence criterion met
 Total energy in the final basis set =     -629.3839214869
        RIMP2         total energy =      -630.5701425262 a.u.

                    Orbital Energies (a.u.)
 --------------------------------------------------------------

 Alpha MOs
 -- Occupied --
-91.9768 -11.2663 -11.2643 -11.2480 -11.2377 -11.2280 -11.2100  -8.9768
 -6.6577  -6.6571  -6.6566  -1.1666  -1.0546  -0.9997  -0.9360  -0.8831
 -0.7440  -0.7273  -0.6451  -0.5886  -0.5784  -0.5727  -0.5549  -0.5429
 -0.5149  -0.4711  -0.4647  -0.4433  -0.3335  -0.2971

          Ground-State Mulliken Net Atomic Charges

     Atom                 Charge (a.u.)
  ----------------------------------------
      1 C                    -0.012335
      2 C                    -0.219123
      3 C                     0.016538
      4 H                     0.177062
      5 C                    -0.234766
      6 S                     0.006824
      7 C                    -0.269749
      8 H                     0.101335
      9 H                     0.107149
     10 H                     0.105527
     11 C                    -0.381512
     12 H                     0.135398
     13 H                     0.157649
     14 H                     0.116587
     15 H                     0.193415
  ----------------------------------------
  Sum of atomic charges =     0.000000

                    Cartesian Multipole Moments
 -----------------------------------------------------------------
    Charge (ESU x 10^10)
                -0.0000
    Dipole Moment (Debye)
         X       1.5616      Y       0.0218      Z       2.1036
       Tot       2.6200
    Quadrupole Moments (Debye-Ang)
        XX     -50.9141     XY       3.5196     YY     -46.6445
        XZ      -0.4215     YZ      -0.8829     ZZ     -48.3642

 Total job time:  159.59s(wall), 158.18s(cpu)
        *  Thank you very much for using Q-Chem.  Have a nice day.  *
