 Q-Chem 5.4, Q-Chem, Inc., Pleasanton, CA (2021)
 Q-Chem 5.4.0 for Intel X86 EM64T Linux

User input:
--------------------------------------------------------------
$molecule
0 1
C	0.004345	-0.576309	0.017232
C	0.004345	0.287291	1.116632
C	0.004445	1.671191	0.793932
H	0.004345	-0.081509	2.153332
C	0.004445	1.891891	-0.595268
S	0.004345	0.366091	-1.469568
C	0.004445	2.758991	1.831832
H	0.004445	2.333291	2.853932
H	-0.887955	3.413291	1.743432
H	0.896845	3.413191	1.743432
C	0.004345	-2.017009	0.017232
H	-1.010455	-2.017209	-0.352268
H	-0.275855	-2.720809	0.787032
H	0.328245	-2.535909	-0.872768
H	0.004445	2.841091	-1.144368
$end

$rem
JOBTYPE		SP
EXCHANGE	HF
CORRELATION	pRIMP2
BASIS		cc-pvtz
METHOD		rimp2
AUX_BASIS	rimp2-cc-pvtz
SOLVENT_METHOD	PCM
PURECART	11111
SYMMETRY	false
MEM_TOTAL	110000
SCF_CONVERGENCE = 6
THRESH=10
$end

$solvent
dielectric 4.90
$end
--------------------------------------------------------------

   10    -629.4241603614      6.98e-07  Convergence criterion met
 Total energy in the final basis set =     -629.4241603614
        RIMP2         total energy =      -630.5991190789 a.u.
 Total job time:  157.88s(wall), 155.69s(cpu)
        *  Thank you very much for using Q-Chem.  Have a nice day.  *
 Q-Chem 5.4, Q-Chem, Inc., Pleasanton, CA (2021)
 Q-Chem 5.4.0 for Intel X86 EM64T Linux

User input:
--------------------------------------------------------------
$molecule
0 1
C	0.004345	-0.576309	0.017232
C	0.004345	0.287291	1.116632
C	0.004445	1.671191	0.793932
H	0.004345	-0.081509	2.153332
C	0.004445	1.891891	-0.595268
S	0.004345	0.366091	-1.469568
C	0.004445	2.758991	1.831832
H	0.004445	2.333291	2.853932
H	-0.887955	3.413291	1.743432
H	0.896845	3.413191	1.743432
C	0.004345	-2.017009	0.017232
H	-1.010455	-2.017209	-0.352268
H	-0.275855	-2.720809	0.787032
H	0.328245	-2.535909	-0.872768
H	0.004445	2.841091	-1.144368
$end

$rem
JOBTYPE		SP
EXCHANGE	HF
CORRELATION	pRIMP2
BASIS		cc-pvtz
METHOD		rimp2
AUX_BASIS	rimp2-cc-pvtz
SOLVENT_METHOD	PCM
PURECART	11111
SYMMETRY	false
MEM_TOTAL	110000
SCF_CONVERGENCE = 6
THRESH=10
$end

$solvent
dielectric 4.90
$end
--------------------------------------------------------------

             Standard Nuclear Orientation (Angstroms)
    I     Atom           X                Y                Z
 ----------------------------------------------------------------
    1      C       0.0043450000    -0.5763090000     0.0172320000
    2      C       0.0043450000     0.2872910000     1.1166320000
    3      C       0.0044450000     1.6711910000     0.7939320000
    4      H       0.0043450000    -0.0815090000     2.1533320000
    5      C       0.0044450000     1.8918910000    -0.5952680000
    6      S       0.0043450000     0.3660910000    -1.4695680000
    7      C       0.0044450000     2.7589910000     1.8318320000
    8      H       0.0044450000     2.3332910000     2.8539320000
    9      H      -0.8879550000     3.4132910000     1.7434320000
   10      H       0.8968450000     3.4131910000     1.7434320000
   11      C       0.0043450000    -2.0170090000     0.0172320000
   12      H      -1.0104550000    -2.0172090000    -0.3522680000
   13      H      -0.2758550000    -2.7208090000     0.7870320000
   14      H       0.3282450000    -2.5359090000    -0.8727680000
   15      H       0.0044450000     2.8410910000    -1.1443680000
 ----------------------------------------------------------------

   10    -629.4241603614      6.98e-07  Convergence criterion met
 Total energy in the final basis set =     -629.4241603614
        RIMP2         total energy =      -630.5991190789 a.u.

                    Orbital Energies (a.u.)
 --------------------------------------------------------------

 Alpha MOs
 -- Occupied --
-91.9788 -11.2845 -11.2500 -11.2467 -11.2263 -11.2229 -11.2217  -8.9787
 -6.6597  -6.6592  -6.6585  -1.1603  -1.0563  -0.9964  -0.9438  -0.8821
 -0.7448  -0.7181  -0.6494  -0.5877  -0.5755  -0.5664  -0.5526  -0.5474
 -0.5074  -0.4936  -0.4658  -0.4561  -0.3391  -0.2898

          Ground-State Mulliken Net Atomic Charges

     Atom                 Charge (a.u.)
  ----------------------------------------
      1 C                     0.060679
      2 C                    -0.301181
      3 C                     0.047565
      4 H                     0.178869
      5 C                    -0.275802
      6 S                    -0.002917
      7 C                    -0.273906
      8 H                     0.101377
      9 H                     0.107250
     10 H                     0.107262
     11 C                    -0.381342
     12 H                     0.137184
     13 H                     0.164089
     14 H                     0.137083
     15 H                     0.193790
  ----------------------------------------
  Sum of atomic charges =     0.000000

                    Cartesian Multipole Moments
 -----------------------------------------------------------------
    Charge (ESU x 10^10)
                -0.0000
    Dipole Moment (Debye)
         X      -0.6820      Y      -0.6554      Z       1.1518
       Tot       1.4904
    Quadrupole Moments (Debye-Ang)
        XX     -54.3369     XY       1.4871     YY     -41.6745
        XZ      -0.2332     YZ       0.6911     ZZ     -48.6354

 Total job time:  156.97s(wall), 155.10s(cpu)
        *  Thank you very much for using Q-Chem.  Have a nice day.  *
