 Q-Chem 5.4, Q-Chem, Inc., Pleasanton, CA (2021)
 Q-Chem 5.4.0 for Intel X86 EM64T Linux

User input:
--------------------------------------------------------------
$molecule
0 1
C	-0.121372	-0.566007	0.018379
C	0.028628	0.284493	1.117779
C	0.268928	1.647393	0.795079
H	-0.035472	-0.078707	2.154479
C	0.307328	1.864693	-0.594121
S	0.042328	0.362093	-1.468421
C	0.457828	2.718593	1.832979
H	0.383928	2.299393	2.855079
H	-0.307372	3.517893	1.744579
H	1.450328	3.207893	1.744579
C	-0.121372	-2.006707	0.018379
H	0.572928	-2.006907	-0.808921
H	-0.748872	-2.710507	-0.508221
H	0.604228	-2.525607	0.627179
H	0.472128	2.799393	-1.143221
$end

$rem
JOBTYPE		SP
EXCHANGE	HF
CORRELATION	pRIMP2
BASIS		cc-pvtz
METHOD		rimp2
AUX_BASIS	rimp2-cc-pvtz
SOLVENT_METHOD	PCM
PURECART	11111
SYMMETRY	false
MEM_TOTAL	110000
SCF_CONVERGENCE = 6
THRESH=10
$end

$solvent
dielectric 4.90
$end
--------------------------------------------------------------

   10    -629.4212489384      6.17e-07  Convergence criterion met
 Total energy in the final basis set =     -629.4212489384
        RIMP2         total energy =      -630.5980532241 a.u.
 Total job time:  157.27s(wall), 155.49s(cpu)
        *  Thank you very much for using Q-Chem.  Have a nice day.  *
 Q-Chem 5.4, Q-Chem, Inc., Pleasanton, CA (2021)
 Q-Chem 5.4.0 for Intel X86 EM64T Linux

User input:
--------------------------------------------------------------
$molecule
0 1
C	-0.121372	-0.566007	0.018379
C	0.028628	0.284493	1.117779
C	0.268928	1.647393	0.795079
H	-0.035472	-0.078707	2.154479
C	0.307328	1.864693	-0.594121
S	0.042328	0.362093	-1.468421
C	0.457828	2.718593	1.832979
H	0.383928	2.299393	2.855079
H	-0.307372	3.517893	1.744579
H	1.450328	3.207893	1.744579
C	-0.121372	-2.006707	0.018379
H	0.572928	-2.006907	-0.808921
H	-0.748872	-2.710507	-0.508221
H	0.604228	-2.525607	0.627179
H	0.472128	2.799393	-1.143221
$end

$rem
JOBTYPE		SP
EXCHANGE	HF
CORRELATION	pRIMP2
BASIS		cc-pvtz
METHOD		rimp2
AUX_BASIS	rimp2-cc-pvtz
SOLVENT_METHOD	PCM
PURECART	11111
SYMMETRY	false
MEM_TOTAL	110000
SCF_CONVERGENCE = 6
THRESH=10
$end

$solvent
dielectric 4.90
$end
--------------------------------------------------------------

             Standard Nuclear Orientation (Angstroms)
    I     Atom           X                Y                Z
 ----------------------------------------------------------------
    1      C      -0.1213720000    -0.5660070000     0.0183790000
    2      C       0.0286280000     0.2844930000     1.1177790000
    3      C       0.2689280000     1.6473930000     0.7950790000
    4      H      -0.0354720000    -0.0787070000     2.1544790000
    5      C       0.3073280000     1.8646930000    -0.5941210000
    6      S       0.0423280000     0.3620930000    -1.4684210000
    7      C       0.4578280000     2.7185930000     1.8329790000
    8      H       0.3839280000     2.2993930000     2.8550790000
    9      H      -0.3073720000     3.5178930000     1.7445790000
   10      H       1.4503280000     3.2078930000     1.7445790000
   11      C      -0.1213720000    -2.0067070000     0.0183790000
   12      H       0.5729280000    -2.0069070000    -0.8089210000
   13      H      -0.7488720000    -2.7105070000    -0.5082210000
   14      H       0.6042280000    -2.5256070000     0.6271790000
   15      H       0.4721280000     2.7993930000    -1.1432210000
 ----------------------------------------------------------------

   10    -629.4212489384      6.17e-07  Convergence criterion met
 Total energy in the final basis set =     -629.4212489384
        RIMP2         total energy =      -630.5980532241 a.u.

                    Orbital Energies (a.u.)
 --------------------------------------------------------------

 Alpha MOs
 -- Occupied --
-91.9778 -11.2793 -11.2549 -11.2469 -11.2282 -11.2267 -11.2181  -8.9779
 -6.6589  -6.6583  -6.6577  -1.1612  -1.0557  -0.9957  -0.9449  -0.8817
 -0.7468  -0.7187  -0.6476  -0.5912  -0.5763  -0.5665  -0.5514  -0.5477
 -0.5081  -0.4896  -0.4646  -0.4498  -0.3391  -0.2968

          Ground-State Mulliken Net Atomic Charges

     Atom                 Charge (a.u.)
  ----------------------------------------
      1 C                     0.059072
      2 C                    -0.290795
      3 C                     0.048708
      4 H                     0.180637
      5 C                    -0.263666
      6 S                    -0.004136
      7 C                    -0.272579
      8 H                     0.101488
      9 H                     0.107356
     10 H                     0.107021
     11 C                    -0.374144
     12 H                     0.124088
     13 H                     0.147769
     14 H                     0.135244
     15 H                     0.193938
  ----------------------------------------
  Sum of atomic charges =     0.000000

                    Cartesian Multipole Moments
 -----------------------------------------------------------------
    Charge (ESU x 10^10)
                -0.0000
    Dipole Moment (Debye)
         X       0.6897      Y      -0.2655      Z       0.9717
       Tot       1.2208
    Quadrupole Moments (Debye-Ang)
        XX     -53.8535     XY       0.6303     YY     -42.3063
        XZ       0.4018     YZ       1.4101     ZZ     -48.7259

 Total job time:  156.03s(wall), 154.91s(cpu)
        *  Thank you very much for using Q-Chem.  Have a nice day.  *
