 Q-Chem 5.4, Q-Chem, Inc., Pleasanton, CA (2021)
 Q-Chem 5.4.0 for Intel X86 EM64T Linux

User input:
--------------------------------------------------------------
$molecule
0 1
C	-0.113323	-0.566010	0.016960
C	0.036677	0.284490	1.116360
C	0.276977	1.647390	0.793660
H	-0.027423	-0.078710	2.153060
C	0.315377	1.864690	-0.595540
S	0.050377	0.362090	-1.469840
C	0.465877	2.718590	1.831560
H	0.391977	2.299390	2.853660
H	-0.299323	3.517890	1.743160
H	1.458377	3.207890	1.743160
C	-0.113323	-2.006710	0.016960
H	-1.048523	-2.006410	-0.523140
H	0.296277	-2.710510	-0.692440
H	-0.586923	-2.525610	0.837160
H	0.480177	2.799390	-1.144640
$end

$rem
JOBTYPE		SP
EXCHANGE	HF
CORRELATION	pRIMP2
BASIS		cc-pvtz
METHOD		rimp2
AUX_BASIS	rimp2-cc-pvtz
SOLVENT_METHOD	PCM
PURECART	11111
SYMMETRY	false
MEM_TOTAL	110000
SCF_CONVERGENCE = 6
THRESH=10
$end

$solvent
dielectric 4.90
$end
--------------------------------------------------------------

             Standard Nuclear Orientation (Angstroms)
    I     Atom           X                Y                Z
 ----------------------------------------------------------------
    1      C      -0.1133230000    -0.5660100000     0.0169600000
    2      C       0.0366770000     0.2844900000     1.1163600000
    3      C       0.2769770000     1.6473900000     0.7936600000
    4      H      -0.0274230000    -0.0787100000     2.1530600000
    5      C       0.3153770000     1.8646900000    -0.5955400000
    6      S       0.0503770000     0.3620900000    -1.4698400000
    7      C       0.4658770000     2.7185900000     1.8315600000
    8      H       0.3919770000     2.2993900000     2.8536600000
    9      H      -0.2993230000     3.5178900000     1.7431600000
   10      H       1.4583770000     3.2078900000     1.7431600000
   11      C      -0.1133230000    -2.0067100000     0.0169600000
   12      H      -1.0485230000    -2.0064100000    -0.5231400000
   13      H       0.2962770000    -2.7105100000    -0.6924400000
   14      H      -0.5869230000    -2.5256100000     0.8371600000
   15      H       0.4801770000     2.7993900000    -1.1446400000
 ----------------------------------------------------------------

   10    -629.4206697025      6.25e-07  Convergence criterion met
 Total energy in the final basis set =     -629.4206697025
        RIMP2         total energy =      -630.5971930405 a.u.

                    Orbital Energies (a.u.)
 --------------------------------------------------------------

 Alpha MOs
 -- Occupied --
-91.9780 -11.2815 -11.2526 -11.2469 -11.2265 -11.2261 -11.2194  -8.9779
 -6.6589  -6.6584  -6.6578  -1.1604  -1.0556  -0.9965  -0.9440  -0.8824
 -0.7455  -0.7186  -0.6472  -0.5900  -0.5751  -0.5697  -0.5502  -0.5471
 -0.5091  -0.4900  -0.4638  -0.4543  -0.3387  -0.2919

          Ground-State Mulliken Net Atomic Charges

     Atom                 Charge (a.u.)
  ----------------------------------------
      1 C                     0.036832
      2 C                    -0.267826
      3 C                     0.034199
      4 H                     0.181418
      5 C                    -0.262556
      6 S                    -0.009840
      7 C                    -0.273807
      8 H                     0.101268
      9 H                     0.107083
     10 H                     0.107162
     11 C                    -0.370553
     12 H                     0.129627
     13 H                     0.155318
     14 H                     0.137696
     15 H                     0.193979
  ----------------------------------------
  Sum of atomic charges =     0.000000

                    Cartesian Multipole Moments
 -----------------------------------------------------------------
    Charge (ESU x 10^10)
                -0.0000
    Dipole Moment (Debye)
         X      -0.3954      Y      -0.4577      Z       1.1096
       Tot       1.2638
    Quadrupole Moments (Debye-Ang)
        XX     -53.8744     XY       2.7830     YY     -42.1062
        XZ      -0.2155     YZ       1.0999     ZZ     -48.6329

 Total job time:  158.93s(wall), 154.94s(cpu)
        *  Thank you very much for using Q-Chem.  Have a nice day.  *
