 Q-Chem 5.4, Q-Chem, Inc., Pleasanton, CA (2021)
 Q-Chem 5.4.0 for Intel X86 EM64T Linux

User input:
--------------------------------------------------------------
$molecule
0 1
C	-0.116404	-0.566010	0.019710
C	0.033596	0.284490	1.119110
C	0.273896	1.647390	0.796410
H	-0.030504	-0.078710	2.155810
C	0.312296	1.864690	-0.592790
S	0.047296	0.362090	-1.467090
C	0.462796	2.718590	1.834310
H	0.388896	2.299390	2.856410
H	-0.302404	3.517890	1.745910
H	1.455296	3.207890	1.745910
C	-0.116404	-2.006710	0.019710
H	-0.303804	-2.006410	-1.043890
H	0.690396	-2.710510	-0.122490
H	-1.049104	-2.525610	0.184210
H	0.477096	2.799390	-1.141890
$end

$rem
JOBTYPE		SP
EXCHANGE	HF
CORRELATION	pRIMP2
BASIS		cc-pvtz
METHOD		rimp2
AUX_BASIS	rimp2-cc-pvtz
SOLVENT_METHOD	PCM
PURECART	11111
SYMMETRY	false
MEM_TOTAL	110000
SCF_CONVERGENCE = 6
THRESH=10
$end

$solvent
dielectric 4.90
$end
--------------------------------------------------------------

             Standard Nuclear Orientation (Angstroms)
    I     Atom           X                Y                Z
 ----------------------------------------------------------------
    1      C      -0.1164040000    -0.5660100000     0.0197100000
    2      C       0.0335960000     0.2844900000     1.1191100000
    3      C       0.2738960000     1.6473900000     0.7964100000
    4      H      -0.0305040000    -0.0787100000     2.1558100000
    5      C       0.3122960000     1.8646900000    -0.5927900000
    6      S       0.0472960000     0.3620900000    -1.4670900000
    7      C       0.4627960000     2.7185900000     1.8343100000
    8      H       0.3888960000     2.2993900000     2.8564100000
    9      H      -0.3024040000     3.5178900000     1.7459100000
   10      H       1.4552960000     3.2078900000     1.7459100000
   11      C      -0.1164040000    -2.0067100000     0.0197100000
   12      H      -0.3038040000    -2.0064100000    -1.0438900000
   13      H       0.6903960000    -2.7105100000    -0.1224900000
   14      H      -1.0491040000    -2.5256100000     0.1842100000
   15      H       0.4770960000     2.7993900000    -1.1418900000
 ----------------------------------------------------------------

   10    -629.4183547963      5.36e-07  Convergence criterion met
 Total energy in the final basis set =     -629.4183547963
        RIMP2         total energy =      -630.5967526030 a.u.

                    Orbital Energies (a.u.)
 --------------------------------------------------------------

 Alpha MOs
 -- Occupied --
-91.9805 -11.2738 -11.2585 -11.2472 -11.2298 -11.2269 -11.2156  -8.9803
 -6.6612  -6.6607  -6.6601  -1.1611  -1.0549  -0.9954  -0.9463  -0.8817
 -0.7480  -0.7188  -0.6479  -0.5909  -0.5756  -0.5670  -0.5529  -0.5474
 -0.5098  -0.4839  -0.4650  -0.4441  -0.3382  -0.3038

          Ground-State Mulliken Net Atomic Charges

     Atom                 Charge (a.u.)
  ----------------------------------------
      1 C                     0.047017
      2 C                    -0.260740
      3 C                     0.038931
      4 H                     0.179979
      5 C                    -0.257533
      6 S                    -0.002016
      7 C                    -0.273167
      8 H                     0.101869
      9 H                     0.106792
     10 H                     0.106800
     11 C                    -0.364084
     12 H                     0.111649
     13 H                     0.139237
     14 H                     0.129996
     15 H                     0.195271
  ----------------------------------------
  Sum of atomic charges =     0.000000

                    Cartesian Multipole Moments
 -----------------------------------------------------------------
    Charge (ESU x 10^10)
                -0.0000
    Dipole Moment (Debye)
         X       0.1487      Y       0.0692      Z       0.8748
       Tot       0.8900
    Quadrupole Moments (Debye-Ang)
        XX     -53.4358     XY       1.6799     YY     -42.4942
        XZ      -0.0354     YZ       1.4603     ZZ     -48.8110

 Total job time:  157.50s(wall), 155.40s(cpu)
        *  Thank you very much for using Q-Chem.  Have a nice day.  *
