 Q-Chem 5.4, Q-Chem, Inc., Pleasanton, CA (2021)
 Q-Chem 5.4.0 for Intel X86 EM64T Linux

User input:
--------------------------------------------------------------
$molecule
0 1
C	-0.281940	-0.512746	0.016152
C	0.083060	0.269954	1.115552
C	0.667960	1.524154	0.792852
H	-0.072840	-0.064346	2.152252
C	0.761260	1.724154	-0.596348
S	0.116360	0.341354	-1.470648
C	1.127660	2.509954	1.830752
H	0.947760	2.124254	2.852852
H	0.595360	3.480154	1.742352
H	2.212960	2.725854	1.742352
C	-0.281940	-1.953446	0.016152
H	-1.296740	-1.953146	-0.353348
H	-0.001740	-2.657246	-0.753648
H	-0.605840	-2.472346	0.906152
H	1.162360	2.584454	-1.145448
$end

$rem
JOBTYPE		SP
EXCHANGE	HF
CORRELATION	pRIMP2
BASIS		cc-pvtz
METHOD		rimp2
AUX_BASIS	rimp2-cc-pvtz
SOLVENT_METHOD	PCM
PURECART	11111
SYMMETRY	false
MEM_TOTAL	110000
SCF_CONVERGENCE = 6
THRESH=10
$end

$solvent
dielectric 4.90
$end
--------------------------------------------------------------

             Standard Nuclear Orientation (Angstroms)
    I     Atom           X                Y                Z
 ----------------------------------------------------------------
    1      C      -0.2819400000    -0.5127460000     0.0161520000
    2      C       0.0830600000     0.2699540000     1.1155520000
    3      C       0.6679600000     1.5241540000     0.7928520000
    4      H      -0.0728400000    -0.0643460000     2.1522520000
    5      C       0.7612600000     1.7241540000    -0.5963480000
    6      S       0.1163600000     0.3413540000    -1.4706480000
    7      C       1.1276600000     2.5099540000     1.8307520000
    8      H       0.9477600000     2.1242540000     2.8528520000
    9      H       0.5953600000     3.4801540000     1.7423520000
   10      H       2.2129600000     2.7258540000     1.7423520000
   11      C      -0.2819400000    -1.9534460000     0.0161520000
   12      H      -1.2967400000    -1.9531460000    -0.3533480000
   13      H      -0.0017400000    -2.6572460000    -0.7536480000
   14      H      -0.6058400000    -2.4723460000     0.9061520000
   15      H       1.1623600000     2.5844540000    -1.1454480000
 ----------------------------------------------------------------

   10    -629.4067180376      5.66e-07  Convergence criterion met
 Total energy in the final basis set =     -629.4067180376
        RIMP2         total energy =      -630.5864989880 a.u.

                    Orbital Energies (a.u.)
 --------------------------------------------------------------

 Alpha MOs
 -- Occupied --
-91.9773 -11.2770 -11.2551 -11.2472 -11.2284 -11.2267 -11.2167  -8.9773
 -6.6583  -6.6577  -6.6571  -1.1613  -1.0548  -0.9964  -0.9430  -0.8825
 -0.7454  -0.7198  -0.6454  -0.5880  -0.5736  -0.5725  -0.5505  -0.5458
 -0.5111  -0.4902  -0.4571  -0.4548  -0.3380  -0.2891

          Ground-State Mulliken Net Atomic Charges

     Atom                 Charge (a.u.)
  ----------------------------------------
      1 C                     0.012865
      2 C                    -0.261885
      3 C                     0.041114
      4 H                     0.181318
      5 C                    -0.261253
      6 S                    -0.004546
      7 C                    -0.271525
      8 H                     0.101375
      9 H                     0.106958
     10 H                     0.106547
     11 C                    -0.372949
     12 H                     0.130691
     13 H                     0.162124
     14 H                     0.135108
     15 H                     0.194057
  ----------------------------------------
  Sum of atomic charges =     0.000000

                    Cartesian Multipole Moments
 -----------------------------------------------------------------
    Charge (ESU x 10^10)
                -0.0000
    Dipole Moment (Debye)
         X      -0.0593      Y      -0.3754      Z       1.2555
       Tot       1.3117
    Quadrupole Moments (Debye-Ang)
        XX     -52.5580     XY       4.7406     YY     -43.6889
        XZ      -0.0948     YZ       0.7987     ZZ     -48.4582

 Total job time:  158.17s(wall), 155.50s(cpu)
        *  Thank you very much for using Q-Chem.  Have a nice day.  *
