 Q-Chem 5.4, Q-Chem, Inc., Pleasanton, CA (2021)
 Q-Chem 5.4.0 for Intel X86 EM64T Linux

User input:
--------------------------------------------------------------
$molecule
0 1
C	-0.003932	-0.576312	0.017955
C	-0.003932	0.287288	1.117355
C	-0.003832	1.671188	0.794655
H	-0.003932	-0.081512	2.154055
C	-0.003832	1.891888	-0.594545
S	-0.003932	0.366088	-1.468845
C	-0.003832	2.758988	1.832555
H	-0.003832	2.333288	2.854655
H	-0.896232	3.413288	1.744155
H	0.888568	3.413188	1.744155
C	-0.003932	-2.017012	0.017955
H	0.931468	-2.016712	-0.521945
H	0.405568	-2.720812	0.727455
H	-0.477532	-2.535912	-0.802245
H	-0.003832	2.841088	-1.143645
$end

$rem
JOBTYPE		SP
EXCHANGE	HF
CORRELATION	pRIMP2
BASIS		cc-pvtz
METHOD		rimp2
AUX_BASIS	rimp2-cc-pvtz
SOLVENT_METHOD	PCM
PURECART	11111
SYMMETRY	false
MEM_TOTAL	110000
SCF_CONVERGENCE = 6
THRESH=10
$end

$solvent
dielectric 4.90
$end
--------------------------------------------------------------

   10    -629.4236622935      6.78e-07  Convergence criterion met
 Total energy in the final basis set =     -629.4236622935
        RIMP2         total energy =      -630.5989534554 a.u.
 Total job time:  159.50s(wall), 156.69s(cpu)
        *  Thank you very much for using Q-Chem.  Have a nice day.  *
 Q-Chem 5.4, Q-Chem, Inc., Pleasanton, CA (2021)
 Q-Chem 5.4.0 for Intel X86 EM64T Linux

User input:
--------------------------------------------------------------
$molecule
0 1
C	-0.003932	-0.576312	0.017955
C	-0.003932	0.287288	1.117355
C	-0.003832	1.671188	0.794655
H	-0.003932	-0.081512	2.154055
C	-0.003832	1.891888	-0.594545
S	-0.003932	0.366088	-1.468845
C	-0.003832	2.758988	1.832555
H	-0.003832	2.333288	2.854655
H	-0.896232	3.413288	1.744155
H	0.888568	3.413188	1.744155
C	-0.003932	-2.017012	0.017955
H	0.931468	-2.016712	-0.521945
H	0.405568	-2.720812	0.727455
H	-0.477532	-2.535912	-0.802245
H	-0.003832	2.841088	-1.143645
$end

$rem
JOBTYPE		SP
EXCHANGE	HF
CORRELATION	pRIMP2
BASIS		cc-pvtz
METHOD		rimp2
AUX_BASIS	rimp2-cc-pvtz
SOLVENT_METHOD	PCM
PURECART	11111
SYMMETRY	false
MEM_TOTAL	110000
SCF_CONVERGENCE = 6
THRESH=10
$end

$solvent
dielectric 4.90
$end
--------------------------------------------------------------

             Standard Nuclear Orientation (Angstroms)
    I     Atom           X                Y                Z
 ----------------------------------------------------------------
    1      C      -0.0039320000    -0.5763120000     0.0179550000
    2      C      -0.0039320000     0.2872880000     1.1173550000
    3      C      -0.0038320000     1.6711880000     0.7946550000
    4      H      -0.0039320000    -0.0815120000     2.1540550000
    5      C      -0.0038320000     1.8918880000    -0.5945450000
    6      S      -0.0039320000     0.3660880000    -1.4688450000
    7      C      -0.0038320000     2.7589880000     1.8325550000
    8      H      -0.0038320000     2.3332880000     2.8546550000
    9      H      -0.8962320000     3.4132880000     1.7441550000
   10      H       0.8885680000     3.4131880000     1.7441550000
   11      C      -0.0039320000    -2.0170120000     0.0179550000
   12      H       0.9314680000    -2.0167120000    -0.5219450000
   13      H       0.4055680000    -2.7208120000     0.7274550000
   14      H      -0.4775320000    -2.5359120000    -0.8022450000
   15      H      -0.0038320000     2.8410880000    -1.1436450000
 ----------------------------------------------------------------

   10    -629.4236622935      6.78e-07  Convergence criterion met
 Total energy in the final basis set =     -629.4236622935
        RIMP2         total energy =      -630.5989534554 a.u.

                    Orbital Energies (a.u.)
 --------------------------------------------------------------

 Alpha MOs
 -- Occupied --
-91.9788 -11.2831 -11.2514 -11.2467 -11.2264 -11.2240 -11.2206  -8.9787
 -6.6597  -6.6592  -6.6585  -1.1604  -1.0561  -0.9961  -0.9444  -0.8819
 -0.7453  -0.7180  -0.6492  -0.5886  -0.5756  -0.5659  -0.5527  -0.5474
 -0.5077  -0.4922  -0.4656  -0.4547  -0.3393  -0.2916

          Ground-State Mulliken Net Atomic Charges

     Atom                 Charge (a.u.)
  ----------------------------------------
      1 C                     0.058550
      2 C                    -0.294547
      3 C                     0.045018
      4 H                     0.180072
      5 C                    -0.270356
      6 S                    -0.004579
      7 C                    -0.273720
      8 H                     0.101405
      9 H                     0.107262
     10 H                     0.107190
     11 C                    -0.379107
     12 H                     0.131736
     13 H                     0.161917
     14 H                     0.135120
     15 H                     0.194040
  ----------------------------------------
  Sum of atomic charges =     0.000000

                    Cartesian Multipole Moments
 -----------------------------------------------------------------
    Charge (ESU x 10^10)
                -0.0000
    Dipole Moment (Debye)
         X       0.6133      Y      -0.5408      Z       1.0638
       Tot       1.3418
    Quadrupole Moments (Debye-Ang)
        XX     -54.2400     XY      -1.3787     YY     -41.7414
        XZ       0.2935     YZ       0.9000     ZZ     -48.6768

 Total job time:  156.64s(wall), 155.30s(cpu)
        *  Thank you very much for using Q-Chem.  Have a nice day.  *
