 Q-Chem 5.4, Q-Chem, Inc., Pleasanton, CA (2021)
 Q-Chem 5.4.0 for Intel X86 EM64T Linux

User input:
--------------------------------------------------------------
$molecule
0 1
C	-0.170819	-0.553191	0.016152
C	0.052681	0.281009	1.115552
C	0.410881	1.617709	0.792852
H	-0.042719	-0.075291	2.152252
C	0.468081	1.830809	-0.596348
S	0.073081	0.357109	-1.470648
C	0.692481	2.668409	1.830752
H	0.582281	2.257309	2.852852
H	-0.000119	3.531409	1.742352
H	1.723781	3.069409	1.742352
C	-0.170819	-1.993891	0.016152
H	-1.185619	-1.993591	-0.353348
H	0.109381	-2.697691	-0.753648
H	-0.494719	-2.512791	0.906152
H	0.713781	2.747709	-1.145448
$end

$rem
JOBTYPE		SP
EXCHANGE	HF
CORRELATION	pRIMP2
BASIS		cc-pvtz
METHOD		rimp2
AUX_BASIS	rimp2-cc-pvtz
SOLVENT_METHOD	PCM
PURECART	11111
SYMMETRY	false
MEM_TOTAL	110000
SCF_CONVERGENCE = 6
THRESH=10
$end

$solvent
dielectric 4.90
$end
--------------------------------------------------------------

             Standard Nuclear Orientation (Angstroms)
    I     Atom           X                Y                Z
 ----------------------------------------------------------------
    1      C      -0.1708190000    -0.5531910000     0.0161520000
    2      C       0.0526810000     0.2810090000     1.1155520000
    3      C       0.4108810000     1.6177090000     0.7928520000
    4      H      -0.0427190000    -0.0752910000     2.1522520000
    5      C       0.4680810000     1.8308090000    -0.5963480000
    6      S       0.0730810000     0.3571090000    -1.4706480000
    7      C       0.6924810000     2.6684090000     1.8307520000
    8      H       0.5822810000     2.2573090000     2.8528520000
    9      H      -0.0001190000     3.5314090000     1.7423520000
   10      H       1.7237810000     3.0694090000     1.7423520000
   11      C      -0.1708190000    -1.9938910000     0.0161520000
   12      H      -1.1856190000    -1.9935910000    -0.3533480000
   13      H       0.1093810000    -2.6976910000    -0.7536480000
   14      H      -0.4947190000    -2.5127910000     0.9061520000
   15      H       0.7137810000     2.7477090000    -1.1454480000
 ----------------------------------------------------------------

   10    -629.4173036715      6.29e-07  Convergence criterion met
 Total energy in the final basis set =     -629.4173036715
        RIMP2         total energy =      -630.5944609305 a.u.

                    Orbital Energies (a.u.)
 --------------------------------------------------------------

 Alpha MOs
 -- Occupied --
-91.9777 -11.2816 -11.2520 -11.2470 -11.2265 -11.2259 -11.2194  -8.9776
 -6.6586  -6.6581  -6.6574  -1.1604  -1.0555  -0.9967  -0.9433  -0.8826
 -0.7450  -0.7189  -0.6467  -0.5891  -0.5744  -0.5710  -0.5504  -0.5465
 -0.5095  -0.4913  -0.4615  -0.4556  -0.3385  -0.2897

          Ground-State Mulliken Net Atomic Charges

     Atom                 Charge (a.u.)
  ----------------------------------------
      1 C                     0.033443
      2 C                    -0.273231
      3 C                     0.038856
      4 H                     0.180827
      5 C                    -0.267150
      6 S                    -0.007428
      7 C                    -0.273074
      8 H                     0.101268
      9 H                     0.107061
     10 H                     0.107058
     11 C                    -0.372718
     12 H                     0.133360
     13 H                     0.160229
     14 H                     0.137750
     15 H                     0.193750
  ----------------------------------------
  Sum of atomic charges =     0.000000

                    Cartesian Multipole Moments
 -----------------------------------------------------------------
    Charge (ESU x 10^10)
                -0.0000
    Dipole Moment (Debye)
         X      -0.3536      Y      -0.5255      Z       1.2096
       Tot       1.3654
    Quadrupole Moments (Debye-Ang)
        XX     -53.5867     XY       3.6137     YY     -42.4516
        XZ      -0.1210     YZ       0.8972     ZZ     -48.5625

 Total job time:  156.97s(wall), 154.50s(cpu)
        *  Thank you very much for using Q-Chem.  Have a nice day.  *
