 Q-Chem 5.4, Q-Chem, Inc., Pleasanton, CA (2021)
 Q-Chem 5.4.0 for Intel X86 EM64T Linux

User input:
--------------------------------------------------------------
$molecule
0 1
C	-0.439600	-0.417594	0.018379
C	0.115500	0.243906	1.117779
C	1.005100	1.304106	0.795079
H	-0.121500	-0.038594	2.154479
C	1.147000	1.473106	-0.594121
S	0.166200	0.304306	-1.468421
C	1.704300	2.137306	1.832979
H	1.430700	1.811306	2.855079
H	1.441300	3.212106	1.744579
H	2.808500	2.064906	1.744579
C	-0.439600	-1.858294	0.018379
H	0.254700	-1.858494	-0.808921
H	-1.067100	-2.562094	-0.508221
H	0.286000	-2.377194	0.627179
H	1.757100	2.200206	-1.143221
$end

$rem
JOBTYPE		SP
EXCHANGE	HF
CORRELATION	pRIMP2
BASIS		cc-pvtz
METHOD		rimp2
AUX_BASIS	rimp2-cc-pvtz
SOLVENT_METHOD	PCM
PURECART	11111
SYMMETRY	false
MEM_TOTAL	110000
SCF_CONVERGENCE = 6
THRESH=10
$end

$solvent
dielectric 4.90
$end
--------------------------------------------------------------

             Standard Nuclear Orientation (Angstroms)
    I     Atom           X                Y                Z
 ----------------------------------------------------------------
    1      C      -0.4396000000    -0.4175940000     0.0183790000
    2      C       0.1155000000     0.2439060000     1.1177790000
    3      C       1.0051000000     1.3041060000     0.7950790000
    4      H      -0.1215000000    -0.0385940000     2.1544790000
    5      C       1.1470000000     1.4731060000    -0.5941210000
    6      S       0.1662000000     0.3043060000    -1.4684210000
    7      C       1.7043000000     2.1373060000     1.8329790000
    8      H       1.4307000000     1.8113060000     2.8550790000
    9      H       1.4413000000     3.2121060000     1.7445790000
   10      H       2.8085000000     2.0649060000     1.7445790000
   11      C      -0.4396000000    -1.8582940000     0.0183790000
   12      H       0.2547000000    -1.8584940000    -0.8089210000
   13      H      -1.0671000000    -2.5620940000    -0.5082210000
   14      H       0.2860000000    -2.3771940000     0.6271790000
   15      H       1.7571000000     2.2002060000    -1.1432210000
 ----------------------------------------------------------------

   10    -629.3877124164      6.01e-07  Convergence criterion met
 Total energy in the final basis set =     -629.3877124164
        RIMP2         total energy =      -630.5714486620 a.u.

                    Orbital Energies (a.u.)
 --------------------------------------------------------------

 Alpha MOs
 -- Occupied --
-91.9731 -11.2682 -11.2647 -11.2475 -11.2376 -11.2277 -11.2122  -8.9741
 -6.6550  -6.6543  -6.6538  -1.1673  -1.0567  -0.9946  -0.9435  -0.8796
 -0.7500  -0.7225  -0.6448  -0.5898  -0.5799  -0.5652  -0.5510  -0.5482
 -0.5117  -0.4858  -0.4619  -0.4419  -0.3382  -0.2949

          Ground-State Mulliken Net Atomic Charges

     Atom                 Charge (a.u.)
  ----------------------------------------
      1 C                     0.008300
      2 C                    -0.251544
      3 C                     0.034092
      4 H                     0.180383
      5 C                    -0.235665
      6 S                    -0.005612
      7 C                    -0.269510
      8 H                     0.101592
      9 H                     0.107774
     10 H                     0.105963
     11 C                    -0.378410
     12 H                     0.136013
     13 H                     0.136589
     14 H                     0.135820
     15 H                     0.194216
  ----------------------------------------
  Sum of atomic charges =     0.000000

                    Cartesian Multipole Moments
 -----------------------------------------------------------------
    Charge (ESU x 10^10)
                -0.0000
    Dipole Moment (Debye)
         X       1.6672      Y      -0.0595      Z       1.1322
       Tot       2.0162
    Quadrupole Moments (Debye-Ang)
        XX     -51.0467     XY       3.6325     YY     -46.4919
        XZ       0.4477     YZ       1.2626     ZZ     -48.3855

 Total job time:  160.55s(wall), 159.15s(cpu)
        *  Thank you very much for using Q-Chem.  Have a nice day.  *
