 Q-Chem 5.4, Q-Chem, Inc., Pleasanton, CA (2021)
 Q-Chem 5.4.0 for Intel X86 EM64T Linux

User input:
--------------------------------------------------------------
$molecule
0 1
C	-0.121159	-0.566007	0.011472
C	0.028841	0.284493	1.110872
C	0.269141	1.647393	0.788172
H	-0.035259	-0.078707	2.147572
C	0.307541	1.864693	-0.601028
S	0.042541	0.362093	-1.475328
C	0.458041	2.718593	1.826072
H	0.384141	2.299393	2.848172
H	-0.307159	3.517893	1.737672
H	1.450541	3.207893	1.737672
C	-0.121159	-2.006707	0.011472
H	0.706141	-2.006907	0.705772
H	0.405441	-2.710507	-0.616028
H	-0.729959	-2.525607	0.737072
H	0.472341	2.799393	-1.150128
$end

$rem
JOBTYPE		SP
EXCHANGE	HF
CORRELATION	pRIMP2
BASIS		cc-pvtz
METHOD		rimp2
AUX_BASIS	rimp2-cc-pvtz
SOLVENT_METHOD	PCM
PURECART	11111
SYMMETRY	false
MEM_TOTAL	110000
SCF_CONVERGENCE = 6
THRESH=10
$end

$solvent
dielectric 4.90
$end
--------------------------------------------------------------

             Standard Nuclear Orientation (Angstroms)
    I     Atom           X                Y                Z
 ----------------------------------------------------------------
    1      C      -0.1211590000    -0.5660070000     0.0114720000
    2      C       0.0288410000     0.2844930000     1.1108720000
    3      C       0.2691410000     1.6473930000     0.7881720000
    4      H      -0.0352590000    -0.0787070000     2.1475720000
    5      C       0.3075410000     1.8646930000    -0.6010280000
    6      S       0.0425410000     0.3620930000    -1.4753280000
    7      C       0.4580410000     2.7185930000     1.8260720000
    8      H       0.3841410000     2.2993930000     2.8481720000
    9      H      -0.3071590000     3.5178930000     1.7376720000
   10      H       1.4505410000     3.2078930000     1.7376720000
   11      C      -0.1211590000    -2.0067070000     0.0114720000
   12      H       0.7061410000    -2.0069070000     0.7057720000
   13      H       0.4054410000    -2.7105070000    -0.6160280000
   14      H      -0.7299590000    -2.5256070000     0.7370720000
   15      H       0.4723410000     2.7993930000    -1.1501280000
 ----------------------------------------------------------------

   10    -629.4213220138      6.06e-07  Convergence criterion met
 Total energy in the final basis set =     -629.4213220138
        RIMP2         total energy =      -630.5986935536 a.u.

                    Orbital Energies (a.u.)
 --------------------------------------------------------------

 Alpha MOs
 -- Occupied --
-91.9776 -11.2832 -11.2508 -11.2474 -11.2269 -11.2266 -11.2191  -8.9774
 -6.6583  -6.6578  -6.6572  -1.1608  -1.0552  -0.9988  -0.9396  -0.8835
 -0.7424  -0.7208  -0.6481  -0.5910  -0.5740  -0.5710  -0.5572  -0.5435
 -0.5093  -0.4861  -0.4671  -0.4505  -0.3370  -0.2929

          Ground-State Mulliken Net Atomic Charges

     Atom                 Charge (a.u.)
  ----------------------------------------
      1 C                     0.063285
      2 C                    -0.281286
      3 C                     0.038097
      4 H                     0.175803
      5 C                    -0.271622
      6 S                    -0.002528
      7 C                    -0.273785
      8 H                     0.101115
      9 H                     0.107321
     10 H                     0.107092
     11 C                    -0.391442
     12 H                     0.141170
     13 H                     0.158991
     14 H                     0.135732
     15 H                     0.192057
  ----------------------------------------
  Sum of atomic charges =     0.000000

                    Cartesian Multipole Moments
 -----------------------------------------------------------------
    Charge (ESU x 10^10)
                -0.0000
    Dipole Moment (Debye)
         X       0.7457      Y      -0.5378      Z       1.8870
       Tot       2.0991
    Quadrupole Moments (Debye-Ang)
        XX     -53.9751     XY       0.2218     YY     -42.3215
        XZ      -0.2510     YZ      -0.5028     ZZ     -48.6847

 Total job time:  158.39s(wall), 156.32s(cpu)
        *  Thank you very much for using Q-Chem.  Have a nice day.  *
