 Q-Chem 5.4, Q-Chem, Inc., Pleasanton, CA (2021)
 Q-Chem 5.4.0 for Intel X86 EM64T Linux

User input:
--------------------------------------------------------------
$molecule
0 1
C	-0.590393	-0.237129	0.011118
C	0.157507	0.194671	1.110518
C	1.356007	0.886571	0.787818
H	-0.161893	0.010271	2.147218
C	1.547107	0.996871	-0.601382
S	0.225807	0.234071	-1.475682
C	2.298107	1.430471	1.825718
H	1.929407	1.217571	2.847818
H	2.418507	2.530371	1.737318
H	3.310907	0.984671	1.737318
C	-0.590393	-1.677829	0.011118
H	-0.050493	-1.677529	0.946518
H	-1.299893	-2.381629	0.420618
H	0.229807	-2.196729	-0.462482
H	2.369207	1.471471	-1.150482
$end

$rem
JOBTYPE		SP
EXCHANGE	HF
CORRELATION	pRIMP2
BASIS		cc-pvtz
METHOD		rimp2
AUX_BASIS	rimp2-cc-pvtz
SOLVENT_METHOD	PCM
PURECART	11111
SYMMETRY	false
MEM_TOTAL	110000
SCF_CONVERGENCE = 6
THRESH=10
$end

$solvent
dielectric 4.90
$end
--------------------------------------------------------------

             Standard Nuclear Orientation (Angstroms)
    I     Atom           X                Y                Z
 ----------------------------------------------------------------
    1      C      -0.5903930000    -0.2371290000     0.0111180000
    2      C       0.1575070000     0.1946710000     1.1105180000
    3      C       1.3560070000     0.8865710000     0.7878180000
    4      H      -0.1618930000     0.0102710000     2.1472180000
    5      C       1.5471070000     0.9968710000    -0.6013820000
    6      S       0.2258070000     0.2340710000    -1.4756820000
    7      C       2.2981070000     1.4304710000     1.8257180000
    8      H       1.9294070000     1.2175710000     2.8478180000
    9      H       2.4185070000     2.5303710000     1.7373180000
   10      H       3.3109070000     0.9846710000     1.7373180000
   11      C      -0.5903930000    -1.6778290000     0.0111180000
   12      H      -0.0504930000    -1.6775290000     0.9465180000
   13      H      -1.2998930000    -2.3816290000     0.4206180000
   14      H       0.2298070000    -2.1967290000    -0.4624820000
   15      H       2.3692070000     1.4714710000    -1.1504820000
 ----------------------------------------------------------------

   11    -629.3352701908      6.63e-07  Convergence criterion met
 Total energy in the final basis set =     -629.3352701908
        RIMP2         total energy =      -630.5291071894 a.u.

                    Orbital Energies (a.u.)
 --------------------------------------------------------------

 Alpha MOs
 -- Occupied --
-91.9763 -11.2817 -11.2521 -11.2485 -11.2459 -11.2293 -11.2046  -8.9768
 -6.6575  -6.6567  -6.6565  -1.1774  -1.0577  -1.0026  -0.9329  -0.8814
 -0.7492  -0.7356  -0.6435  -0.5946  -0.5826  -0.5679  -0.5531  -0.5449
 -0.5169  -0.4743  -0.4512  -0.4436  -0.3266  -0.2962

          Ground-State Mulliken Net Atomic Charges

     Atom                 Charge (a.u.)
  ----------------------------------------
      1 C                    -0.108008
      2 C                    -0.106820
      3 C                    -0.032934
      4 H                     0.184806
      5 C                    -0.189839
      6 S                     0.020510
      7 C                    -0.267650
      8 H                     0.101814
      9 H                     0.107048
     10 H                     0.103673
     11 C                    -0.369408
     12 H                     0.119134
     13 H                     0.116315
     14 H                     0.122839
     15 H                     0.198519
  ----------------------------------------
  Sum of atomic charges =     0.000000

                    Cartesian Multipole Moments
 -----------------------------------------------------------------
    Charge (ESU x 10^10)
                -0.0000
    Dipole Moment (Debye)
         X       2.7412      Y       0.1154      Z       2.1701
       Tot       3.4981
    Quadrupole Moments (Debye-Ang)
        XX     -48.4346     XY       3.6817     YY     -50.4345
        XZ      -0.8800     YZ      -0.8502     ZZ     -47.6499

 Total job time:  180.76s(wall), 178.74s(cpu)
        *  Thank you very much for using Q-Chem.  Have a nice day.  *
