 Q-Chem 5.4, Q-Chem, Inc., Pleasanton, CA (2021)
 Q-Chem 5.4.0 for Intel X86 EM64T Linux

User input:
--------------------------------------------------------------
$molecule
0 1
C	-0.236690	-0.535397	0.016439
C	0.058710	0.276103	1.115839
C	0.532010	1.576503	0.793139
H	-0.067390	-0.070397	2.152539
C	0.607510	1.783903	-0.596061
S	0.085610	0.350203	-1.470361
C	0.904110	2.598703	1.831039
H	0.758510	2.198703	2.853139
H	0.289310	3.518703	1.742639
H	1.966510	2.908303	1.742639
C	-0.236690	-1.976097	0.016439
H	0.826910	-1.975797	-0.170961
H	-0.094490	-2.679897	0.823239
H	-0.401190	-2.494997	-0.916261
H	0.932210	2.675903	-1.145161
$end

$rem
JOBTYPE		SP
EXCHANGE	HF
CORRELATION	pRIMP2
BASIS		cc-pvtz
METHOD		rimp2
AUX_BASIS	rimp2-cc-pvtz
SOLVENT_METHOD	PCM
PURECART	11111
SYMMETRY	false
MEM_TOTAL	110000
SCF_CONVERGENCE = 6
THRESH=10
$end

$solvent
dielectric 4.90
$end
--------------------------------------------------------------

   10    -629.4186557130      7.18e-07  Convergence criterion met
 Total energy in the final basis set =     -629.4186557130
        RIMP2         total energy =      -630.5949655136 a.u.
 Total job time:  159.09s(wall), 156.86s(cpu)
        *  Thank you very much for using Q-Chem.  Have a nice day.  *
 Q-Chem 5.4, Q-Chem, Inc., Pleasanton, CA (2021)
 Q-Chem 5.4.0 for Intel X86 EM64T Linux

User input:
--------------------------------------------------------------
$molecule
0 1
C	-0.236690	-0.535397	0.016439
C	0.058710	0.276103	1.115839
C	0.532010	1.576503	0.793139
H	-0.067390	-0.070397	2.152539
C	0.607510	1.783903	-0.596061
S	0.085610	0.350203	-1.470361
C	0.904110	2.598703	1.831039
H	0.758510	2.198703	2.853139
H	0.289310	3.518703	1.742639
H	1.966510	2.908303	1.742639
C	-0.236690	-1.976097	0.016439
H	0.826910	-1.975797	-0.170961
H	-0.094490	-2.679897	0.823239
H	-0.401190	-2.494997	-0.916261
H	0.932210	2.675903	-1.145161
$end

$rem
JOBTYPE		SP
EXCHANGE	HF
CORRELATION	pRIMP2
BASIS		cc-pvtz
METHOD		rimp2
AUX_BASIS	rimp2-cc-pvtz
SOLVENT_METHOD	PCM
PURECART	11111
SYMMETRY	false
MEM_TOTAL	110000
SCF_CONVERGENCE = 6
THRESH=10
$end

$solvent
dielectric 4.90
$end
--------------------------------------------------------------

             Standard Nuclear Orientation (Angstroms)
    I     Atom           X                Y                Z
 ----------------------------------------------------------------
    1      C      -0.2366900000    -0.5353970000     0.0164390000
    2      C       0.0587100000     0.2761030000     1.1158390000
    3      C       0.5320100000     1.5765030000     0.7931390000
    4      H      -0.0673900000    -0.0703970000     2.1525390000
    5      C       0.6075100000     1.7839030000    -0.5960610000
    6      S       0.0856100000     0.3502030000    -1.4703610000
    7      C       0.9041100000     2.5987030000     1.8310390000
    8      H       0.7585100000     2.1987030000     2.8531390000
    9      H       0.2893100000     3.5187030000     1.7426390000
   10      H       1.9665100000     2.9083030000     1.7426390000
   11      C      -0.2366900000    -1.9760970000     0.0164390000
   12      H       0.8269100000    -1.9757970000    -0.1709610000
   13      H      -0.0944900000    -2.6798970000     0.8232390000
   14      H      -0.4011900000    -2.4949970000    -0.9162610000
   15      H       0.9322100000     2.6759030000    -1.1451610000
 ----------------------------------------------------------------

   10    -629.4186557130      7.18e-07  Convergence criterion met
 Total energy in the final basis set =     -629.4186557130
        RIMP2         total energy =      -630.5949655136 a.u.

                    Orbital Energies (a.u.)
 --------------------------------------------------------------

 Alpha MOs
 -- Occupied --
-91.9781 -11.2839 -11.2511 -11.2473 -11.2266 -11.2235 -11.2223  -8.9781
 -6.6591  -6.6585  -6.6579  -1.1622  -1.0568  -0.9963  -0.9424  -0.8818
 -0.7450  -0.7191  -0.6493  -0.5863  -0.5782  -0.5654  -0.5531  -0.5472
 -0.5068  -0.4948  -0.4651  -0.4567  -0.3394  -0.2884

          Ground-State Mulliken Net Atomic Charges

     Atom                 Charge (a.u.)
  ----------------------------------------
      1 C                     0.062053
      2 C                    -0.327174
      3 C                     0.064079
      4 H                     0.175656
      5 C                    -0.281048
      6 S                     0.000606
      7 C                    -0.271862
      8 H                     0.101541
      9 H                     0.107542
     10 H                     0.107017
     11 C                    -0.373044
     12 H                     0.147059
     13 H                     0.161513
     14 H                     0.133076
     15 H                     0.192986
  ----------------------------------------
  Sum of atomic charges =     0.000000

                    Cartesian Multipole Moments
 -----------------------------------------------------------------
    Charge (ESU x 10^10)
                -0.0000
    Dipole Moment (Debye)
         X       1.1147      Y      -0.6791      Z       1.3037
       Tot       1.8448
    Quadrupole Moments (Debye-Ang)
        XX     -53.7429     XY       1.4380     YY     -42.8451
        XZ       0.2631     YZ       0.3627     ZZ     -48.5937

 Total job time:  156.49s(wall), 155.48s(cpu)
        *  Thank you very much for using Q-Chem.  Have a nice day.  *
