 Q-Chem 5.4, Q-Chem, Inc., Pleasanton, CA (2021)
 Q-Chem 5.4.0 for Intel X86 EM64T Linux

User input:
--------------------------------------------------------------
$molecule
0 1
C	-0.519068	-0.333972	0.010180
C	0.142532	0.221128	1.109580
C	1.202632	1.110628	0.786880
H	-0.139968	-0.015972	2.146280
C	1.371732	1.252428	-0.602320
S	0.202832	0.271728	-1.476620
C	2.035932	1.809828	1.824780
H	1.709832	1.536228	2.846880
H	1.963532	2.914028	1.736380
H	3.110732	1.546728	1.736380
C	-0.519068	-1.774672	0.010180
H	-0.519168	-1.774872	1.090180
H	0.300132	-2.478472	0.010280
H	-1.466168	-2.293572	0.010180
H	2.098832	1.862628	-1.151420
$end

$rem
JOBTYPE		SP
EXCHANGE	HF
CORRELATION	pRIMP2
BASIS		cc-pvtz
METHOD		rimp2
AUX_BASIS	rimp2-cc-pvtz
SOLVENT_METHOD	PCM
PURECART	11111
SYMMETRY	false
MEM_TOTAL	110000
SCF_CONVERGENCE = 6
THRESH=10
$end

$solvent
dielectric 4.90
$end
--------------------------------------------------------------

             Standard Nuclear Orientation (Angstroms)
    I     Atom           X                Y                Z
 ----------------------------------------------------------------
    1      C      -0.5190680000    -0.3339720000     0.0101800000
    2      C       0.1425320000     0.2211280000     1.1095800000
    3      C       1.2026320000     1.1106280000     0.7868800000
    4      H      -0.1399680000    -0.0159720000     2.1462800000
    5      C       1.3717320000     1.2524280000    -0.6023200000
    6      S       0.2028320000     0.2717280000    -1.4766200000
    7      C       2.0359320000     1.8098280000     1.8247800000
    8      H       1.7098320000     1.5362280000     2.8468800000
    9      H       1.9635320000     2.9140280000     1.7363800000
   10      H       3.1107320000     1.5467280000     1.7363800000
   11      C      -0.5190680000    -1.7746720000     0.0101800000
   12      H      -0.5191680000    -1.7748720000     1.0901800000
   13      H       0.3001320000    -2.4784720000     0.0102800000
   14      H      -1.4661680000    -2.2935720000     0.0101800000
   15      H       2.0988320000     1.8626280000    -1.1514200000
 ----------------------------------------------------------------

   10    -629.3699483596      8.34e-07  Convergence criterion met
 Total energy in the final basis set =     -629.3699483596
        RIMP2         total energy =      -630.5584909623 a.u.

                    Orbital Energies (a.u.)
 --------------------------------------------------------------

 Alpha MOs
 -- Occupied --
-91.9732 -11.2758 -11.2528 -11.2490 -11.2480 -11.2289 -11.2078  -8.9739
 -6.6547  -6.6539  -6.6536  -1.1699  -1.0548  -1.0008  -0.9350  -0.8836
 -0.7459  -0.7320  -0.6448  -0.5874  -0.5835  -0.5706  -0.5537  -0.5423
 -0.5188  -0.4709  -0.4608  -0.4277  -0.3335  -0.3064

          Ground-State Mulliken Net Atomic Charges

     Atom                 Charge (a.u.)
  ----------------------------------------
      1 C                    -0.065081
      2 C                    -0.167619
      3 C                     0.001621
      4 H                     0.178447
      5 C                    -0.203139
      6 S                     0.005510
      7 C                    -0.268338
      8 H                     0.101554
      9 H                     0.106801
     10 H                     0.105370
     11 C                    -0.351455
     12 H                     0.108467
     13 H                     0.145366
     14 H                     0.106595
     15 H                     0.195901
  ----------------------------------------
  Sum of atomic charges =     0.000000

                    Cartesian Multipole Moments
 -----------------------------------------------------------------
    Charge (ESU x 10^10)
                -0.0000
    Dipole Moment (Debye)
         X       1.9306      Y       0.3298      Z       2.2751
       Tot       3.0020
    Quadrupole Moments (Debye-Ang)
        XX     -49.0574     XY       4.3380     YY     -48.4354
        XZ      -0.4381     YZ      -1.0279     ZZ     -48.3564

 Total job time:  160.46s(wall), 158.95s(cpu)
        *  Thank you very much for using Q-Chem.  Have a nice day.  *
