 Q-Chem 5.4, Q-Chem, Inc., Pleasanton, CA (2021)
 Q-Chem 5.4.0 for Intel X86 EM64T Linux

User input:
--------------------------------------------------------------
$molecule
0 1
C	-0.582792	-0.237129	0.013624
C	0.165108	0.194671	1.113024
C	1.363608	0.886571	0.790324
H	-0.154292	0.010271	2.149724
C	1.554708	0.996871	-0.598876
S	0.233408	0.234071	-1.473176
C	2.305708	1.430471	1.828224
H	1.937008	1.217571	2.850324
H	2.426108	2.530371	1.739824
H	3.318508	0.984671	1.739824
C	-0.582792	-1.677829	0.013624
H	-1.646392	-1.677529	0.201024
H	-0.724992	-2.381629	-0.793176
H	-0.418292	-2.196729	0.946324
H	2.376808	1.471471	-1.147976
$end

$rem
JOBTYPE		SP
EXCHANGE	HF
CORRELATION	pRIMP2
BASIS		cc-pvtz
METHOD		rimp2
AUX_BASIS	rimp2-cc-pvtz
SOLVENT_METHOD	PCM
PURECART	11111
SYMMETRY	false
MEM_TOTAL	110000
SCF_CONVERGENCE = 6
THRESH=10
$end

$solvent
dielectric 4.90
$end
--------------------------------------------------------------

             Standard Nuclear Orientation (Angstroms)
    I     Atom           X                Y                Z
 ----------------------------------------------------------------
    1      C      -0.5827920000    -0.2371290000     0.0136240000
    2      C       0.1651080000     0.1946710000     1.1130240000
    3      C       1.3636080000     0.8865710000     0.7903240000
    4      H      -0.1542920000     0.0102710000     2.1497240000
    5      C       1.5547080000     0.9968710000    -0.5988760000
    6      S       0.2334080000     0.2340710000    -1.4731760000
    7      C       2.3057080000     1.4304710000     1.8282240000
    8      H       1.9370080000     1.2175710000     2.8503240000
    9      H       2.4261080000     2.5303710000     1.7398240000
   10      H       3.3185080000     0.9846710000     1.7398240000
   11      C      -0.5827920000    -1.6778290000     0.0136240000
   12      H      -1.6463920000    -1.6775290000     0.2010240000
   13      H      -0.7249920000    -2.3816290000    -0.7931760000
   14      H      -0.4182920000    -2.1967290000     0.9463240000
   15      H       2.3768080000     1.4714710000    -1.1479760000
 ----------------------------------------------------------------

   11    -629.3354779737      6.71e-07  Convergence criterion met
 Total energy in the final basis set =     -629.3354779737
        RIMP2         total energy =      -630.5289854474 a.u.

                    Orbital Energies (a.u.)
 --------------------------------------------------------------

 Alpha MOs
 -- Occupied --
-91.9716 -11.2793 -11.2516 -11.2488 -11.2427 -11.2286 -11.2041  -8.9726
 -6.6535  -6.6524  -6.6523  -1.1714  -1.0547  -0.9980  -0.9377  -0.8821
 -0.7493  -0.7302  -0.6408  -0.5863  -0.5811  -0.5668  -0.5520  -0.5424
 -0.5178  -0.4935  -0.4587  -0.4175  -0.3347  -0.2832

          Ground-State Mulliken Net Atomic Charges

     Atom                 Charge (a.u.)
  ----------------------------------------
      1 C                    -0.094322
      2 C                    -0.141678
      3 C                    -0.011187
      4 H                     0.184370
      5 C                    -0.189078
      6 S                     0.013183
      7 C                    -0.268542
      8 H                     0.101810
      9 H                     0.106563
     10 H                     0.104497
     11 C                    -0.402491
     12 H                     0.125586
     13 H                     0.149733
     14 H                     0.126074
     15 H                     0.195481
  ----------------------------------------
  Sum of atomic charges =     0.000000

                    Cartesian Multipole Moments
 -----------------------------------------------------------------
    Charge (ESU x 10^10)
                -0.0000
    Dipole Moment (Debye)
         X       1.7601      Y      -0.0033      Z       1.8408
       Tot       2.5469
    Quadrupole Moments (Debye-Ang)
        XX     -47.8313     XY       5.3027     YY     -50.0954
        XZ      -0.1457     YZ       0.1265     ZZ     -47.5353

 Total job time:  175.11s(wall), 173.88s(cpu)
        *  Thank you very much for using Q-Chem.  Have a nice day.  *
