 Q-Chem 5.4, Q-Chem, Inc., Pleasanton, CA (2021)
 Q-Chem 5.4.0 for Intel X86 EM64T Linux

User input:
--------------------------------------------------------------
$molecule
0 1
C	-0.458538	-0.419987	0.014457
C	0.096562	0.241513	1.113857
C	0.986162	1.301713	0.791157
H	-0.140438	-0.040987	2.150557
C	1.128062	1.470713	-0.598043
S	0.147262	0.301913	-1.472343
C	1.685362	2.134913	1.829057
H	1.411762	1.808913	2.851157
H	1.422362	3.209713	1.740657
H	2.789562	2.062513	1.740657
C	-0.208338	-1.838787	0.014457
H	0.855262	-1.651487	0.014557
H	-0.086138	-2.531887	-0.804743
H	-0.118238	-2.349887	0.961557
H	1.738162	2.197813	-1.147143
$end

$rem
JOBTYPE		SP
EXCHANGE	HF
CORRELATION	pRIMP2
BASIS		cc-pvtz
METHOD		rimp2
AUX_BASIS	rimp2-cc-pvtz
SOLVENT_METHOD	PCM
PURECART	11111
SYMMETRY	false
MEM_TOTAL	110000
SCF_CONVERGENCE = 6
THRESH=10
$end

$solvent
dielectric 4.90
$end
--------------------------------------------------------------

             Standard Nuclear Orientation (Angstroms)
    I     Atom           X                Y                Z
 ----------------------------------------------------------------
    1      C      -0.4585380000    -0.4199870000     0.0144570000
    2      C       0.0965620000     0.2415130000     1.1138570000
    3      C       0.9861620000     1.3017130000     0.7911570000
    4      H      -0.1404380000    -0.0409870000     2.1505570000
    5      C       1.1280620000     1.4707130000    -0.5980430000
    6      S       0.1472620000     0.3019130000    -1.4723430000
    7      C       1.6853620000     2.1349130000     1.8290570000
    8      H       1.4117620000     1.8089130000     2.8511570000
    9      H       1.4223620000     3.2097130000     1.7406570000
   10      H       2.7895620000     2.0625130000     1.7406570000
   11      C      -0.2083380000    -1.8387870000     0.0144570000
   12      H       0.8552620000    -1.6514870000     0.0145570000
   13      H      -0.0861380000    -2.5318870000    -0.8047430000
   14      H      -0.1182380000    -2.3498870000     0.9615570000
   15      H       1.7381620000     2.1978130000    -1.1471430000
 ----------------------------------------------------------------

   10    -629.3745474983      6.51e-07  Convergence criterion met
 Total energy in the final basis set =     -629.3745474983
        RIMP2         total energy =      -630.5618937699 a.u.

                    Orbital Energies (a.u.)
 --------------------------------------------------------------

 Alpha MOs
 -- Occupied --
-91.9755 -11.2687 -11.2678 -11.2504 -11.2360 -11.2285 -11.2171  -8.9762
 -6.6571  -6.6564  -6.6559  -1.1723  -1.0582  -0.9978  -0.9380  -0.8814
 -0.7488  -0.7261  -0.6447  -0.5881  -0.5850  -0.5683  -0.5526  -0.5461
 -0.5097  -0.4928  -0.4603  -0.4453  -0.3391  -0.2876

          Ground-State Mulliken Net Atomic Charges

     Atom                 Charge (a.u.)
  ----------------------------------------
      1 C                    -0.020644
      2 C                    -0.220305
      3 C                     0.019589
      4 H                     0.178694
      5 C                    -0.236226
      6 S                     0.007058
      7 C                    -0.268120
      8 H                     0.102315
      9 H                     0.107686
     10 H                     0.105368
     11 C                    -0.367313
     12 H                     0.129165
     13 H                     0.146051
     14 H                     0.121356
     15 H                     0.195325
  ----------------------------------------
  Sum of atomic charges =     0.000000

                    Cartesian Multipole Moments
 -----------------------------------------------------------------
    Charge (ESU x 10^10)
                -0.0000
    Dipole Moment (Debye)
         X       2.1198      Y       0.0953      Z       1.5850
       Tot       2.6486
    Quadrupole Moments (Debye-Ang)
        XX     -51.5270     XY       3.1804     YY     -46.6540
        XZ       0.0273     YZ       0.1261     ZZ     -48.0863

 Total job time:  164.43s(wall), 161.31s(cpu)
        *  Thank you very much for using Q-Chem.  Have a nice day.  *
