 Q-Chem 5.4, Q-Chem, Inc., Pleasanton, CA (2021)
 Q-Chem 5.4.0 for Intel X86 EM64T Linux

User input:
--------------------------------------------------------------
$molecule
0 1
C	-0.115883	-0.566010	0.010543
C	0.034117	0.284490	1.109943
C	0.274417	1.647390	0.787243
H	-0.029983	-0.078710	2.146643
C	0.312817	1.864690	-0.601957
S	0.047817	0.362090	-1.476257
C	0.463317	2.718590	1.825143
H	0.389417	2.299390	2.847243
H	-0.301883	3.517890	1.736743
H	1.455817	3.207890	1.736743
C	-0.115883	-2.006710	0.010543
H	-0.655983	-2.006410	0.945743
H	-0.825283	-2.710510	-0.399057
H	0.704317	-2.525610	0.484143
H	0.477617	2.799390	-1.151057
$end

$rem
JOBTYPE		SP
EXCHANGE	HF
CORRELATION	pRIMP2
BASIS		cc-pvtz
METHOD		rimp2
AUX_BASIS	rimp2-cc-pvtz
SOLVENT_METHOD	PCM
PURECART	11111
SYMMETRY	false
MEM_TOTAL	110000
SCF_CONVERGENCE = 6
THRESH=10
$end

$solvent
dielectric 4.90
$end
--------------------------------------------------------------

   10    -629.4228464835      5.29e-07  Convergence criterion met
 Total energy in the final basis set =     -629.4228464835
        RIMP2         total energy =      -630.6009631190 a.u.
 Total job time:  156.76s(wall), 155.18s(cpu)
        *  Thank you very much for using Q-Chem.  Have a nice day.  *
 Q-Chem 5.4, Q-Chem, Inc., Pleasanton, CA (2021)
 Q-Chem 5.4.0 for Intel X86 EM64T Linux

User input:
--------------------------------------------------------------
$molecule
0 1
C	-0.115883	-0.566010	0.010543
C	0.034117	0.284490	1.109943
C	0.274417	1.647390	0.787243
H	-0.029983	-0.078710	2.146643
C	0.312817	1.864690	-0.601957
S	0.047817	0.362090	-1.476257
C	0.463317	2.718590	1.825143
H	0.389417	2.299390	2.847243
H	-0.301883	3.517890	1.736743
H	1.455817	3.207890	1.736743
C	-0.115883	-2.006710	0.010543
H	-0.655983	-2.006410	0.945743
H	-0.825283	-2.710510	-0.399057
H	0.704317	-2.525610	0.484143
H	0.477617	2.799390	-1.151057
$end

$rem
JOBTYPE		SP
EXCHANGE	HF
CORRELATION	pRIMP2
BASIS		cc-pvtz
METHOD		rimp2
AUX_BASIS	rimp2-cc-pvtz
SOLVENT_METHOD	PCM
PURECART	11111
SYMMETRY	false
MEM_TOTAL	110000
SCF_CONVERGENCE = 6
THRESH=10
$end

$solvent
dielectric 4.90
$end
--------------------------------------------------------------

             Standard Nuclear Orientation (Angstroms)
    I     Atom           X                Y                Z
 ----------------------------------------------------------------
    1      C      -0.1158830000    -0.5660100000     0.0105430000
    2      C       0.0341170000     0.2844900000     1.1099430000
    3      C       0.2744170000     1.6473900000     0.7872430000
    4      H      -0.0299830000    -0.0787100000     2.1466430000
    5      C       0.3128170000     1.8646900000    -0.6019570000
    6      S       0.0478170000     0.3620900000    -1.4762570000
    7      C       0.4633170000     2.7185900000     1.8251430000
    8      H       0.3894170000     2.2993900000     2.8472430000
    9      H      -0.3018830000     3.5178900000     1.7367430000
   10      H       1.4558170000     3.2078900000     1.7367430000
   11      C      -0.1158830000    -2.0067100000     0.0105430000
   12      H      -0.6559830000    -2.0064100000     0.9457430000
   13      H      -0.8252830000    -2.7105100000    -0.3990570000
   14      H       0.7043170000    -2.5256100000     0.4841430000
   15      H       0.4776170000     2.7993900000    -1.1510570000
 ----------------------------------------------------------------

   10    -629.4228464835      5.29e-07  Convergence criterion met
 Total energy in the final basis set =     -629.4228464835
        RIMP2         total energy =      -630.6009631190 a.u.

                    Orbital Energies (a.u.)
 --------------------------------------------------------------

 Alpha MOs
 -- Occupied --
-91.9752 -11.2791 -11.2552 -11.2473 -11.2321 -11.2273 -11.2173  -8.9752
 -6.6562  -6.6556  -6.6551  -1.1608  -1.0543  -0.9993  -0.9397  -0.8842
 -0.7422  -0.7227  -0.6481  -0.5918  -0.5767  -0.5667  -0.5594  -0.5425
 -0.5101  -0.4875  -0.4663  -0.4410  -0.3376  -0.2995

          Ground-State Mulliken Net Atomic Charges

     Atom                 Charge (a.u.)
  ----------------------------------------
      1 C                     0.060743
      2 C                    -0.278419
      3 C                     0.038164
      4 H                     0.177500
      5 C                    -0.259382
      6 S                    -0.005809
      7 C                    -0.273770
      8 H                     0.101088
      9 H                     0.107099
     10 H                     0.107371
     11 C                    -0.377884
     12 H                     0.125004
     13 H                     0.156837
     14 H                     0.128901
     15 H                     0.192555
  ----------------------------------------
  Sum of atomic charges =     0.000000

                    Cartesian Multipole Moments
 -----------------------------------------------------------------
    Charge (ESU x 10^10)
                -0.0000
    Dipole Moment (Debye)
         X      -0.0838      Y      -0.2432      Z       2.0760
       Tot       2.0918
    Quadrupole Moments (Debye-Ang)
        XX     -53.5171     XY       2.4063     YY     -42.3825
        XZ       0.2661     YZ      -0.8476     ZZ     -48.8635

 Total job time:  157.96s(wall), 155.87s(cpu)
        *  Thank you very much for using Q-Chem.  Have a nice day.  *
