 Q-Chem 5.4, Q-Chem, Inc., Pleasanton, CA (2021)
 Q-Chem 5.4.0 for Intel X86 EM64T Linux

User input:
--------------------------------------------------------------
$molecule
0 1
C	-0.587747	-0.237129	0.019910
C	0.160153	0.194671	1.119310
C	1.358653	0.886571	0.796610
H	-0.159247	0.010271	2.156010
C	1.549753	0.996871	-0.592590
S	0.228453	0.234071	-1.466890
C	2.300753	1.430471	1.834510
H	1.932053	1.217571	2.856610
H	2.421153	2.530371	1.746110
H	3.313553	0.984671	1.746110
C	-0.587747	-1.677829	0.019910
H	-0.400047	-1.677529	-1.043690
H	0.218953	-2.381629	0.162210
H	-1.520447	-2.196729	-0.144590
H	2.371853	1.471471	-1.141690
$end

$rem
JOBTYPE		SP
EXCHANGE	HF
CORRELATION	pRIMP2
BASIS		cc-pvtz
METHOD		rimp2
AUX_BASIS	rimp2-cc-pvtz
SOLVENT_METHOD	PCM
PURECART	11111
SYMMETRY	false
MEM_TOTAL	110000
SCF_CONVERGENCE = 6
THRESH=10
$end

$solvent
dielectric 4.90
$end
--------------------------------------------------------------

             Standard Nuclear Orientation (Angstroms)
    I     Atom           X                Y                Z
 ----------------------------------------------------------------
    1      C      -0.5877470000    -0.2371290000     0.0199100000
    2      C       0.1601530000     0.1946710000     1.1193100000
    3      C       1.3586530000     0.8865710000     0.7966100000
    4      H      -0.1592470000     0.0102710000     2.1560100000
    5      C       1.5497530000     0.9968710000    -0.5925900000
    6      S       0.2284530000     0.2340710000    -1.4668900000
    7      C       2.3007530000     1.4304710000     1.8345100000
    8      H       1.9320530000     1.2175710000     2.8566100000
    9      H       2.4211530000     2.5303710000     1.7461100000
   10      H       3.3135530000     0.9846710000     1.7461100000
   11      C      -0.5877470000    -1.6778290000     0.0199100000
   12      H      -0.4000470000    -1.6775290000    -1.0436900000
   13      H       0.2189530000    -2.3816290000     0.1622100000
   14      H      -1.5204470000    -2.1967290000    -0.1445900000
   15      H       2.3718530000     1.4714710000    -1.1416900000
 ----------------------------------------------------------------

   10    -629.3360779405      9.68e-07  Convergence criterion met
 Total energy in the final basis set =     -629.3360779405
        RIMP2         total energy =      -630.5274227192 a.u.

                    Orbital Energies (a.u.)
 --------------------------------------------------------------

 Alpha MOs
 -- Occupied --
-91.9722 -11.2847 -11.2556 -11.2472 -11.2405 -11.2287 -11.2037  -8.9739
 -6.6547  -6.6537  -6.6535  -1.1758  -1.0583  -0.9954  -0.9444  -0.8769
 -0.7574  -0.7287  -0.6451  -0.5878  -0.5822  -0.5687  -0.5520  -0.5465
 -0.5200  -0.4654  -0.4582  -0.4317  -0.3276  -0.3045

          Ground-State Mulliken Net Atomic Charges

     Atom                 Charge (a.u.)
  ----------------------------------------
      1 C                    -0.112440
      2 C                    -0.109587
      3 C                    -0.020391
      4 H                     0.185197
      5 C                    -0.180026
      6 S                     0.004292
      7 C                    -0.268611
      8 H                     0.102079
      9 H                     0.106826
     10 H                     0.103551
     11 C                    -0.370705
     12 H                     0.125484
     13 H                     0.132244
     14 H                     0.103316
     15 H                     0.198771
  ----------------------------------------
  Sum of atomic charges =     0.000000

                    Cartesian Multipole Moments
 -----------------------------------------------------------------
    Charge (ESU x 10^10)
                -0.0000
    Dipole Moment (Debye)
         X       2.6576      Y       0.2801      Z       1.1553
       Tot       2.9114
    Quadrupole Moments (Debye-Ang)
        XX     -48.1043     XY       3.7537     YY     -50.3860
        XZ      -0.0193     YZ       1.2290     ZZ     -47.7647

 Total job time:  165.85s(wall), 163.77s(cpu)
        *  Thank you very much for using Q-Chem.  Have a nice day.  *
