 Q-Chem 5.4, Q-Chem, Inc., Pleasanton, CA (2021)
 Q-Chem 5.4.0 for Intel X86 EM64T Linux

User input:
--------------------------------------------------------------
$molecule
0 1
C	-0.592148	-0.237129	0.016439
C	0.155752	0.194671	1.115839
C	1.354252	0.886571	0.793139
H	-0.163648	0.010271	2.152539
C	1.545352	0.996871	-0.596061
S	0.224052	0.234071	-1.470361
C	2.296352	1.430471	1.831039
H	1.927652	1.217571	2.853139
H	2.416752	2.530371	1.742639
H	3.309152	0.984671	1.742639
C	-0.592148	-1.677829	0.016439
H	0.471452	-1.677529	-0.170961
H	-0.449948	-2.381629	0.823239
H	-0.756648	-2.196729	-0.916261
H	2.367452	1.471471	-1.145161
$end

$rem
JOBTYPE		SP
EXCHANGE	HF
CORRELATION	pRIMP2
BASIS		cc-pvtz
METHOD		rimp2
AUX_BASIS	rimp2-cc-pvtz
SOLVENT_METHOD	PCM
PURECART	11111
SYMMETRY	false
MEM_TOTAL	110000
SCF_CONVERGENCE = 6
THRESH=10
$end

$solvent
dielectric 4.90
$end
--------------------------------------------------------------

             Standard Nuclear Orientation (Angstroms)
    I     Atom           X                Y                Z
 ----------------------------------------------------------------
    1      C      -0.5921480000    -0.2371290000     0.0164390000
    2      C       0.1557520000     0.1946710000     1.1158390000
    3      C       1.3542520000     0.8865710000     0.7931390000
    4      H      -0.1636480000     0.0102710000     2.1525390000
    5      C       1.5453520000     0.9968710000    -0.5960610000
    6      S       0.2240520000     0.2340710000    -1.4703610000
    7      C       2.2963520000     1.4304710000     1.8310390000
    8      H       1.9276520000     1.2175710000     2.8531390000
    9      H       2.4167520000     2.5303710000     1.7426390000
   10      H       3.3091520000     0.9846710000     1.7426390000
   11      C      -0.5921480000    -1.6778290000     0.0164390000
   12      H       0.4714520000    -1.6775290000    -0.1709610000
   13      H      -0.4499480000    -2.3816290000     0.8232390000
   14      H      -0.7566480000    -2.1967290000    -0.9162610000
   15      H       2.3674520000     1.4714710000    -1.1451610000
 ----------------------------------------------------------------

   10    -629.3492868454      9.47e-07  Convergence criterion met
 Total energy in the final basis set =     -629.3492868454
        RIMP2         total energy =      -630.5405736278 a.u.

                    Orbital Energies (a.u.)
 --------------------------------------------------------------

 Alpha MOs
 -- Occupied --
-91.9737 -11.2798 -11.2570 -11.2514 -11.2453 -11.2294 -11.2148  -8.9750
 -6.6558  -6.6550  -6.6547  -1.1790  -1.0602  -0.9979  -0.9393  -0.8798
 -0.7535  -0.7298  -0.6475  -0.5914  -0.5830  -0.5664  -0.5542  -0.5458
 -0.5101  -0.4942  -0.4624  -0.4333  -0.3395  -0.2894

          Ground-State Mulliken Net Atomic Charges

     Atom                 Charge (a.u.)
  ----------------------------------------
      1 C                    -0.073265
      2 C                    -0.156644
      3 C                    -0.008923
      4 H                     0.182939
      5 C                    -0.202910
      6 S                     0.009693
      7 C                    -0.268274
      8 H                     0.102745
      9 H                     0.107633
     10 H                     0.104924
     11 C                    -0.357883
     12 H                     0.107038
     13 H                     0.140478
     14 H                     0.114675
     15 H                     0.197772
  ----------------------------------------
  Sum of atomic charges =     0.000000

                    Cartesian Multipole Moments
 -----------------------------------------------------------------
    Charge (ESU x 10^10)
                -0.0000
    Dipole Moment (Debye)
         X       2.7286      Y      -0.1486      Z       1.6236
       Tot       3.1786
    Quadrupole Moments (Debye-Ang)
        XX     -48.8825     XY       3.7972     YY     -49.7712
        XZ      -0.0784     YZ      -0.0001     ZZ     -47.7656

 Total job time:  166.32s(wall), 164.98s(cpu)
        *  Thank you very much for using Q-Chem.  Have a nice day.  *
