 Q-Chem 5.4, Q-Chem, Inc., Pleasanton, CA (2021)
 Q-Chem 5.4.0 for Intel X86 EM64T Linux

User input:
--------------------------------------------------------------
$molecule
0 1
C	-0.523729	-0.333972	0.017710
C	0.137871	0.221128	1.117110
C	1.197971	1.110628	0.794410
H	-0.144629	-0.015972	2.153810
C	1.367071	1.252428	-0.594790
S	0.198171	0.271728	-1.469090
C	2.031271	1.809828	1.832310
H	1.705171	1.536228	2.854410
H	1.958871	2.914028	1.743910
H	3.106071	1.546728	1.743910
C	-0.523729	-1.774672	0.017710
H	0.303671	-1.774872	-0.676390
H	-1.050229	-2.478472	-0.609890
H	0.085071	-2.293572	0.743210
H	2.094171	1.862628	-1.143890
$end

$rem
JOBTYPE		SP
EXCHANGE	HF
CORRELATION	pRIMP2
BASIS		cc-pvtz
METHOD		rimp2
AUX_BASIS	rimp2-cc-pvtz
SOLVENT_METHOD	PCM
PURECART	11111
SYMMETRY	false
MEM_TOTAL	110000
SCF_CONVERGENCE = 6
THRESH=10
$end

$solvent
dielectric 4.90
$end
--------------------------------------------------------------

             Standard Nuclear Orientation (Angstroms)
    I     Atom           X                Y                Z
 ----------------------------------------------------------------
    1      C      -0.5237290000    -0.3339720000     0.0177100000
    2      C       0.1378710000     0.2211280000     1.1171100000
    3      C       1.1979710000     1.1106280000     0.7944100000
    4      H      -0.1446290000    -0.0159720000     2.1538100000
    5      C       1.3670710000     1.2524280000    -0.5947900000
    6      S       0.1981710000     0.2717280000    -1.4690900000
    7      C       2.0312710000     1.8098280000     1.8323100000
    8      H       1.7051710000     1.5362280000     2.8544100000
    9      H       1.9588710000     2.9140280000     1.7439100000
   10      H       3.1060710000     1.5467280000     1.7439100000
   11      C      -0.5237290000    -1.7746720000     0.0177100000
   12      H       0.3036710000    -1.7748720000    -0.6763900000
   13      H      -1.0502290000    -2.4784720000    -0.6098900000
   14      H       0.0850710000    -2.2935720000     0.7432100000
   15      H       2.0941710000     1.8626280000    -1.1438900000
 ----------------------------------------------------------------

   10    -629.3679400604      5.31e-07  Convergence criterion met
 Total energy in the final basis set =     -629.3679400604
        RIMP2         total energy =      -630.5552484792 a.u.

                    Orbital Energies (a.u.)
 --------------------------------------------------------------

 Alpha MOs
 -- Occupied --
-91.9706 -11.2710 -11.2630 -11.2487 -11.2429 -11.2284 -11.2108  -8.9722
 -6.6531  -6.6523  -6.6519  -1.1721  -1.0581  -0.9953  -0.9421  -0.8789
 -0.7519  -0.7256  -0.6440  -0.5895  -0.5830  -0.5654  -0.5518  -0.5474
 -0.5125  -0.4886  -0.4612  -0.4367  -0.3387  -0.2914

          Ground-State Mulliken Net Atomic Charges

     Atom                 Charge (a.u.)
  ----------------------------------------
      1 C                    -0.021489
      2 C                    -0.213642
      3 C                     0.013411
      4 H                     0.182724
      5 C                    -0.218204
      6 S                    -0.006336
      7 C                    -0.268606
      8 H                     0.101768
      9 H                     0.107908
     10 H                     0.105897
     11 C                    -0.376195
     12 H                     0.135335
     13 H                     0.131673
     14 H                     0.130402
     15 H                     0.195353
  ----------------------------------------
  Sum of atomic charges =     0.000000

                    Cartesian Multipole Moments
 -----------------------------------------------------------------
    Charge (ESU x 10^10)
                -0.0000
    Dipole Moment (Debye)
         X       2.1906      Y      -0.0742      Z       1.3247
       Tot       2.5611
    Quadrupole Moments (Debye-Ang)
        XX     -49.8864     XY       3.7437     YY     -48.3085
        XZ       0.3296     YZ       1.0690     ZZ     -48.1720

 Total job time:  161.46s(wall), 159.92s(cpu)
        *  Thank you very much for using Q-Chem.  Have a nice day.  *
