 Q-Chem 5.4, Q-Chem, Inc., Pleasanton, CA (2021)
 Q-Chem 5.4.0 for Intel X86 EM64T Linux

User input:
--------------------------------------------------------------
$molecule
0 1
C	-0.178253	-0.553189	0.010945
C	0.045247	0.281011	1.110345
C	0.403447	1.617711	0.787645
H	-0.050153	-0.075289	2.147045
C	0.460647	1.830811	-0.601555
S	0.065647	0.357111	-1.475855
C	0.685047	2.668411	1.825545
H	0.574847	2.257311	2.847645
H	-0.007553	3.531411	1.737145
H	1.716347	3.069411	1.737145
C	-0.178253	-1.993889	0.010945
H	0.515847	-1.994089	0.838345
H	0.449347	-2.697689	-0.515555
H	-0.903753	-2.512789	0.619745
H	0.706347	2.747711	-1.150655
$end

$rem
JOBTYPE		SP
EXCHANGE	HF
CORRELATION	pRIMP2
BASIS		cc-pvtz
METHOD		rimp2
AUX_BASIS	rimp2-cc-pvtz
SOLVENT_METHOD	PCM
PURECART	11111
SYMMETRY	false
MEM_TOTAL	110000
SCF_CONVERGENCE = 6
THRESH=10
$end

$solvent
dielectric 4.90
$end
--------------------------------------------------------------

             Standard Nuclear Orientation (Angstroms)
    I     Atom           X                Y                Z
 ----------------------------------------------------------------
    1      C      -0.1782530000    -0.5531890000     0.0109450000
    2      C       0.0452470000     0.2810110000     1.1103450000
    3      C       0.4034470000     1.6177110000     0.7876450000
    4      H      -0.0501530000    -0.0752890000     2.1470450000
    5      C       0.4606470000     1.8308110000    -0.6015550000
    6      S       0.0656470000     0.3571110000    -1.4758550000
    7      C       0.6850470000     2.6684110000     1.8255450000
    8      H       0.5748470000     2.2573110000     2.8476450000
    9      H      -0.0075530000     3.5314110000     1.7371450000
   10      H       1.7163470000     3.0694110000     1.7371450000
   11      C      -0.1782530000    -1.9938890000     0.0109450000
   12      H       0.5158470000    -1.9940890000     0.8383450000
   13      H       0.4493470000    -2.6976890000    -0.5155550000
   14      H      -0.9037530000    -2.5127890000     0.6197450000
   15      H       0.7063470000     2.7477110000    -1.1506550000
 ----------------------------------------------------------------

   10    -629.4178918946      5.59e-07  Convergence criterion met
 Total energy in the final basis set =     -629.4178918946
        RIMP2         total energy =      -630.5964290196 a.u.

                    Orbital Energies (a.u.)
 --------------------------------------------------------------

 Alpha MOs
 -- Occupied --
-91.9772 -11.2806 -11.2531 -11.2474 -11.2290 -11.2271 -11.2172  -8.9770
 -6.6580  -6.6574  -6.6569  -1.1614  -1.0548  -0.9990  -0.9391  -0.8837
 -0.7423  -0.7221  -0.6479  -0.5910  -0.5751  -0.5707  -0.5573  -0.5430
 -0.5103  -0.4829  -0.4677  -0.4474  -0.3366  -0.2955

          Ground-State Mulliken Net Atomic Charges

     Atom                 Charge (a.u.)
  ----------------------------------------
      1 C                     0.054267
      2 C                    -0.271979
      3 C                     0.034758
      4 H                     0.175874
      5 C                    -0.264376
      6 S                    -0.002541
      7 C                    -0.272909
      8 H                     0.101163
      9 H                     0.107275
     10 H                     0.106941
     11 C                    -0.389690
     12 H                     0.138875
     13 H                     0.157595
     14 H                     0.132652
     15 H                     0.192094
  ----------------------------------------
  Sum of atomic charges =     0.000000

                    Cartesian Multipole Moments
 -----------------------------------------------------------------
    Charge (ESU x 10^10)
                -0.0000
    Dipole Moment (Debye)
         X       0.7767      Y      -0.3766      Z       1.9844
       Tot       2.1640
    Quadrupole Moments (Debye-Ang)
        XX     -53.5898     XY       1.0988     YY     -42.8140
        XZ      -0.2748     YZ      -0.7040     ZZ     -48.7066

 Total job time:  156.51s(wall), 155.30s(cpu)
        *  Thank you very much for using Q-Chem.  Have a nice day.  *
