 Q-Chem 5.4, Q-Chem, Inc., Pleasanton, CA (2021)
 Q-Chem 5.4.0 for Intel X86 EM64T Linux

User input:
--------------------------------------------------------------
$molecule
0 1
C	-0.338602	-0.485419	0.010180
C	0.093198	0.262481	1.109580
C	0.785198	1.460981	0.786880
H	-0.091202	-0.056919	2.146280
C	0.895498	1.652081	-0.602320
S	0.132598	0.330681	-1.476620
C	1.329098	2.402981	1.824780
H	1.116298	2.034381	2.846880
H	0.883398	3.415781	1.736380
H	2.429098	2.523381	1.736380
C	-0.338602	-1.926119	0.010180
H	-0.338702	-1.926319	1.090180
H	0.480598	-2.629919	0.010280
H	-1.285702	-2.445019	0.010180
H	1.370198	2.474081	-1.151420
$end

$rem
JOBTYPE		SP
EXCHANGE	HF
CORRELATION	pRIMP2
BASIS		cc-pvtz
METHOD		rimp2
AUX_BASIS	rimp2-cc-pvtz
SOLVENT_METHOD	PCM
PURECART	11111
SYMMETRY	false
MEM_TOTAL	110000
SCF_CONVERGENCE = 6
THRESH=10
$end

$solvent
dielectric 4.90
$end
--------------------------------------------------------------

             Standard Nuclear Orientation (Angstroms)
    I     Atom           X                Y                Z
 ----------------------------------------------------------------
    1      C      -0.3386020000    -0.4854190000     0.0101800000
    2      C       0.0931980000     0.2624810000     1.1095800000
    3      C       0.7851980000     1.4609810000     0.7868800000
    4      H      -0.0912020000    -0.0569190000     2.1462800000
    5      C       0.8954980000     1.6520810000    -0.6023200000
    6      S       0.1325980000     0.3306810000    -1.4766200000
    7      C       1.3290980000     2.4029810000     1.8247800000
    8      H       1.1162980000     2.0343810000     2.8468800000
    9      H       0.8833980000     3.4157810000     1.7363800000
   10      H       2.4290980000     2.5233810000     1.7363800000
   11      C      -0.3386020000    -1.9261190000     0.0101800000
   12      H      -0.3387020000    -1.9263190000     1.0901800000
   13      H       0.4805980000    -2.6299190000     0.0102800000
   14      H      -1.2857020000    -2.4450190000     0.0101800000
   15      H       1.3701980000     2.4740810000    -1.1514200000
 ----------------------------------------------------------------

   10    -629.4050315545      5.10e-07  Convergence criterion met
 Total energy in the final basis set =     -629.4050315545
        RIMP2         total energy =      -630.5872828410 a.u.

                    Orbital Energies (a.u.)
 --------------------------------------------------------------

 Alpha MOs
 -- Occupied --
-91.9740 -11.2687 -11.2637 -11.2474 -11.2392 -11.2279 -11.2126  -8.9744
 -6.6553  -6.6546  -6.6542  -1.1637  -1.0536  -0.9997  -0.9380  -0.8842
 -0.7432  -0.7267  -0.6471  -0.5886  -0.5800  -0.5692  -0.5566  -0.5418
 -0.5143  -0.4762  -0.4672  -0.4338  -0.3368  -0.3049

          Ground-State Mulliken Net Atomic Charges

     Atom                 Charge (a.u.)
  ----------------------------------------
      1 C                     0.008977
      2 C                    -0.248070
      3 C                     0.033599
      4 H                     0.176776
      5 C                    -0.238095
      6 S                    -0.003136
      7 C                    -0.270316
      8 H                     0.101318
      9 H                     0.106930
     10 H                     0.106592
     11 C                    -0.354664
     12 H                     0.116088
     13 H                     0.151129
     14 H                     0.119142
     15 H                     0.193730
  ----------------------------------------
  Sum of atomic charges =     0.000000

                    Cartesian Multipole Moments
 -----------------------------------------------------------------
    Charge (ESU x 10^10)
                -0.0000
    Dipole Moment (Debye)
         X       0.9218      Y       0.1515      Z       2.1999
       Tot       2.3900
    Quadrupole Moments (Debye-Ang)
        XX     -51.6780     XY       3.6947     YY     -44.8181
        XZ      -0.1614     YZ      -1.1085     ZZ     -48.7688

 Total job time:  158.64s(wall), 156.49s(cpu)
        *  Thank you very much for using Q-Chem.  Have a nice day.  *
