 Q-Chem 5.4, Q-Chem, Inc., Pleasanton, CA (2021)
 Q-Chem 5.4.0 for Intel X86 EM64T Linux

User input:
--------------------------------------------------------------
$molecule
0 1
C	-0.229333	-0.535397	0.010946
C	0.066067	0.276103	1.110346
C	0.539367	1.576503	0.787646
H	-0.060033	-0.070397	2.147046
C	0.614867	1.783903	-0.601554
S	0.092967	0.350203	-1.475854
C	0.911467	2.598703	1.825546
H	0.765867	2.198703	2.847646
H	0.296667	3.518703	1.737146
H	1.973867	2.908303	1.737146
C	-0.229333	-1.976097	0.010946
H	-0.923633	-1.975797	0.838246
H	-0.856833	-2.679897	-0.515654
H	0.496267	-2.494997	0.619746
H	0.939567	2.675903	-1.150654
$end

$rem
JOBTYPE		SP
EXCHANGE	HF
CORRELATION	pRIMP2
BASIS		cc-pvtz
METHOD		rimp2
AUX_BASIS	rimp2-cc-pvtz
SOLVENT_METHOD	PCM
PURECART	11111
SYMMETRY	false
MEM_TOTAL	110000
SCF_CONVERGENCE = 6
THRESH=10
$end

$solvent
dielectric 4.90
$end
--------------------------------------------------------------

   10    -629.4163013001      5.39e-07  Convergence criterion met
 Total energy in the final basis set =     -629.4163013001
        RIMP2         total energy =      -630.5958098941 a.u.
 Total job time:  170.11s(wall), 168.62s(cpu)
        *  Thank you very much for using Q-Chem.  Have a nice day.  *
 Q-Chem 5.4, Q-Chem, Inc., Pleasanton, CA (2021)
 Q-Chem 5.4.0 for Intel X86 EM64T Linux

User input:
--------------------------------------------------------------
$molecule
0 1
C	-0.229333	-0.535397	0.010946
C	0.066067	0.276103	1.110346
C	0.539367	1.576503	0.787646
H	-0.060033	-0.070397	2.147046
C	0.614867	1.783903	-0.601554
S	0.092967	0.350203	-1.475854
C	0.911467	2.598703	1.825546
H	0.765867	2.198703	2.847646
H	0.296667	3.518703	1.737146
H	1.973867	2.908303	1.737146
C	-0.229333	-1.976097	0.010946
H	-0.923633	-1.975797	0.838246
H	-0.856833	-2.679897	-0.515654
H	0.496267	-2.494997	0.619746
H	0.939567	2.675903	-1.150654
$end

$rem
JOBTYPE		SP
EXCHANGE	HF
CORRELATION	pRIMP2
BASIS		cc-pvtz
METHOD		rimp2
AUX_BASIS	rimp2-cc-pvtz
SOLVENT_METHOD	PCM
PURECART	11111
SYMMETRY	false
MEM_TOTAL	110000
SCF_CONVERGENCE = 6
THRESH=10
$end

$solvent
dielectric 4.90
$end
--------------------------------------------------------------

             Standard Nuclear Orientation (Angstroms)
    I     Atom           X                Y                Z
 ----------------------------------------------------------------
    1      C      -0.2293330000    -0.5353970000     0.0109460000
    2      C       0.0660670000     0.2761030000     1.1103460000
    3      C       0.5393670000     1.5765030000     0.7876460000
    4      H      -0.0600330000    -0.0703970000     2.1470460000
    5      C       0.6148670000     1.7839030000    -0.6015540000
    6      S       0.0929670000     0.3502030000    -1.4758540000
    7      C       0.9114670000     2.5987030000     1.8255460000
    8      H       0.7658670000     2.1987030000     2.8476460000
    9      H       0.2966670000     3.5187030000     1.7371460000
   10      H       1.9738670000     2.9083030000     1.7371460000
   11      C      -0.2293330000    -1.9760970000     0.0109460000
   12      H      -0.9236330000    -1.9757970000     0.8382460000
   13      H      -0.8568330000    -2.6798970000    -0.5156540000
   14      H       0.4962670000    -2.4949970000     0.6197460000
   15      H       0.9395670000     2.6759030000    -1.1506540000
 ----------------------------------------------------------------

   10    -629.4163013001      5.39e-07  Convergence criterion met
 Total energy in the final basis set =     -629.4163013001
        RIMP2         total energy =      -630.5958098941 a.u.

                    Orbital Energies (a.u.)
 --------------------------------------------------------------

 Alpha MOs
 -- Occupied --
-91.9748 -11.2775 -11.2559 -11.2476 -11.2324 -11.2273 -11.2169  -8.9749
 -6.6558  -6.6552  -6.6547  -1.1613  -1.0544  -0.9988  -0.9396  -0.8840
 -0.7426  -0.7225  -0.6471  -0.5909  -0.5767  -0.5663  -0.5590  -0.5429
 -0.5108  -0.4891  -0.4641  -0.4413  -0.3375  -0.2967

          Ground-State Mulliken Net Atomic Charges

     Atom                 Charge (a.u.)
  ----------------------------------------
      1 C                     0.048557
      2 C                    -0.287040
      3 C                     0.043965
      4 H                     0.177545
      5 C                    -0.257990
      6 S                    -0.002864
      7 C                    -0.272860
      8 H                     0.101179
      9 H                     0.107072
     10 H                     0.107196
     11 C                    -0.377583
     12 H                     0.127568
     13 H                     0.156715
     14 H                     0.136523
     15 H                     0.192018
  ----------------------------------------
  Sum of atomic charges =     0.000000

                    Cartesian Multipole Moments
 -----------------------------------------------------------------
    Charge (ESU x 10^10)
                -0.0000
    Dipole Moment (Debye)
         X       0.0596      Y      -0.2709      Z       2.0307
       Tot       2.0496
    Quadrupole Moments (Debye-Ang)
        XX     -52.7958     XY       3.9452     YY     -43.2266
        XZ       0.3105     YZ      -0.6967     ZZ     -48.7489

 Total job time:  158.02s(wall), 156.44s(cpu)
        *  Thank you very much for using Q-Chem.  Have a nice day.  *
