 Q-Chem 5.4, Q-Chem, Inc., Pleasanton, CA (2021)
 Q-Chem 5.4.0 for Intel X86 EM64T Linux

User input:
--------------------------------------------------------------
$molecule
0 1
C	-0.588589	-0.237127	0.010276
C	0.159311	0.194673	1.109676
C	1.357811	0.886573	0.786976
H	-0.160089	0.010273	2.146376
C	1.548911	0.996873	-0.602224
S	0.227611	0.234073	-1.476524
C	2.299911	1.430473	1.824876
H	1.931211	1.217573	2.846976
H	2.420311	2.530373	1.736476
H	3.312711	0.984673	1.736476
C	-0.588589	-1.677827	0.010276
H	-0.219289	-1.678027	1.025176
H	0.181211	-2.381627	-0.269824
H	-1.478589	-2.196727	0.334176
H	2.371011	1.471473	-1.151324
$end

$rem
JOBTYPE		SP
EXCHANGE	HF
CORRELATION	pRIMP2
BASIS		cc-pvtz
METHOD		rimp2
AUX_BASIS	rimp2-cc-pvtz
SOLVENT_METHOD	PCM
PURECART	11111
SYMMETRY	false
MEM_TOTAL	110000
SCF_CONVERGENCE = 6
THRESH=10
$end

$solvent
dielectric 4.90
$end
--------------------------------------------------------------

             Standard Nuclear Orientation (Angstroms)
    I     Atom           X                Y                Z
 ----------------------------------------------------------------
    1      C      -0.5885890000    -0.2371270000     0.0102760000
    2      C       0.1593110000     0.1946730000     1.1096760000
    3      C       1.3578110000     0.8865730000     0.7869760000
    4      H      -0.1600890000     0.0102730000     2.1463760000
    5      C       1.5489110000     0.9968730000    -0.6022240000
    6      S       0.2276110000     0.2340730000    -1.4765240000
    7      C       2.2999110000     1.4304730000     1.8248760000
    8      H       1.9312110000     1.2175730000     2.8469760000
    9      H       2.4203110000     2.5303730000     1.7364760000
   10      H       3.3127110000     0.9846730000     1.7364760000
   11      C      -0.5885890000    -1.6778270000     0.0102760000
   12      H      -0.2192890000    -1.6780270000     1.0251760000
   13      H       0.1812110000    -2.3816270000    -0.2698240000
   14      H      -1.4785890000    -2.1967270000     0.3341760000
   15      H       2.3710110000     1.4714730000    -1.1513240000
 ----------------------------------------------------------------

   11    -629.3362106908      5.81e-07  Convergence criterion met
 Total energy in the final basis set =     -629.3362106908
        RIMP2         total energy =      -630.5295466213 a.u.

                    Orbital Energies (a.u.)
 --------------------------------------------------------------

 Alpha MOs
 -- Occupied --
-91.9754 -11.2830 -11.2543 -11.2486 -11.2422 -11.2294 -11.2040  -8.9759
 -6.6567  -6.6559  -6.6556  -1.1763  -1.0570  -1.0029  -0.9325  -0.8823
 -0.7485  -0.7363  -0.6437  -0.5903  -0.5837  -0.5719  -0.5522  -0.5440
 -0.5203  -0.4727  -0.4505  -0.4342  -0.3271  -0.3006

          Ground-State Mulliken Net Atomic Charges

     Atom                 Charge (a.u.)
  ----------------------------------------
      1 C                    -0.112901
      2 C                    -0.104991
      3 C                    -0.031665
      4 H                     0.183507
      5 C                    -0.182208
      6 S                     0.017171
      7 C                    -0.267878
      8 H                     0.101812
      9 H                     0.106789
     10 H                     0.103885
     11 C                    -0.366994
     12 H                     0.115984
     13 H                     0.140109
     14 H                     0.099456
     15 H                     0.197923
  ----------------------------------------
  Sum of atomic charges =     0.000000

                    Cartesian Multipole Moments
 -----------------------------------------------------------------
    Charge (ESU x 10^10)
                -0.0000
    Dipole Moment (Debye)
         X       2.7314      Y       0.2196      Z       2.2600
       Tot       3.5520
    Quadrupole Moments (Debye-Ang)
        XX     -48.2343     XY       3.5423     YY     -50.3668
        XZ      -0.8221     YZ      -0.8109     ZZ     -47.8057

 Total job time:  179.21s(wall), 177.40s(cpu)
        *  Thank you very much for using Q-Chem.  Have a nice day.  *
