 Q-Chem 5.4, Q-Chem, Inc., Pleasanton, CA (2021)
 Q-Chem 5.4.0 for Intel X86 EM64T Linux

User input:
--------------------------------------------------------------
$molecule
0 1
C	0.001101	-0.576309	0.019788
C	0.001101	0.287291	1.119188
C	0.001201	1.671191	0.796488
H	0.001101	-0.081509	2.155888
C	0.001201	1.891891	-0.592712
S	0.001101	0.366091	-1.467012
C	0.001201	2.758991	1.834388
H	0.001201	2.333291	2.856488
H	-0.891199	3.413291	1.745988
H	0.893601	3.413191	1.745988
C	0.001101	-2.017009	0.019788
H	-0.368199	-2.017209	-0.995112
H	-0.768699	-2.720809	0.299888
H	0.891101	-2.535909	-0.304112
H	0.001201	2.841091	-1.141812
$end

$rem
JOBTYPE		SP
EXCHANGE	HF
CORRELATION	pRIMP2
BASIS		cc-pvtz
METHOD		rimp2
AUX_BASIS	rimp2-cc-pvtz
SOLVENT_METHOD	PCM
PURECART	11111
SYMMETRY	false
MEM_TOTAL	110000
SCF_CONVERGENCE = 6
THRESH=10
$end

$solvent
dielectric 4.90
$end
--------------------------------------------------------------

   10    -629.4210159956      5.65e-07  Convergence criterion met
 Total energy in the final basis set =     -629.4210159956
        RIMP2         total energy =      -630.5983996568 a.u.
 Total job time:  162.02s(wall), 159.87s(cpu)
        *  Thank you very much for using Q-Chem.  Have a nice day.  *
 Q-Chem 5.4, Q-Chem, Inc., Pleasanton, CA (2021)
 Q-Chem 5.4.0 for Intel X86 EM64T Linux

User input:
--------------------------------------------------------------
$molecule
0 1
C	0.001101	-0.576309	0.019788
C	0.001101	0.287291	1.119188
C	0.001201	1.671191	0.796488
H	0.001101	-0.081509	2.155888
C	0.001201	1.891891	-0.592712
S	0.001101	0.366091	-1.467012
C	0.001201	2.758991	1.834388
H	0.001201	2.333291	2.856488
H	-0.891199	3.413291	1.745988
H	0.893601	3.413191	1.745988
C	0.001101	-2.017009	0.019788
H	-0.368199	-2.017209	-0.995112
H	-0.768699	-2.720809	0.299888
H	0.891101	-2.535909	-0.304112
H	0.001201	2.841091	-1.141812
$end

$rem
JOBTYPE		SP
EXCHANGE	HF
CORRELATION	pRIMP2
BASIS		cc-pvtz
METHOD		rimp2
AUX_BASIS	rimp2-cc-pvtz
SOLVENT_METHOD	PCM
PURECART	11111
SYMMETRY	false
MEM_TOTAL	110000
SCF_CONVERGENCE = 6
THRESH=10
$end

$solvent
dielectric 4.90
$end
--------------------------------------------------------------

             Standard Nuclear Orientation (Angstroms)
    I     Atom           X                Y                Z
 ----------------------------------------------------------------
    1      C       0.0011010000    -0.5763090000     0.0197880000
    2      C       0.0011010000     0.2872910000     1.1191880000
    3      C       0.0012010000     1.6711910000     0.7964880000
    4      H       0.0011010000    -0.0815090000     2.1558880000
    5      C       0.0012010000     1.8918910000    -0.5927120000
    6      S       0.0011010000     0.3660910000    -1.4670120000
    7      C       0.0012010000     2.7589910000     1.8343880000
    8      H       0.0012010000     2.3332910000     2.8564880000
    9      H      -0.8911990000     3.4132910000     1.7459880000
   10      H       0.8936010000     3.4131910000     1.7459880000
   11      C       0.0011010000    -2.0170090000     0.0197880000
   12      H      -0.3681990000    -2.0172090000    -0.9951120000
   13      H      -0.7686990000    -2.7208090000     0.2998880000
   14      H       0.8911010000    -2.5359090000    -0.3041120000
   15      H       0.0012010000     2.8410910000    -1.1418120000
 ----------------------------------------------------------------

   10    -629.4210159956      5.65e-07  Convergence criterion met
 Total energy in the final basis set =     -629.4210159956
        RIMP2         total energy =      -630.5983996568 a.u.

                    Orbital Energies (a.u.)
 --------------------------------------------------------------

 Alpha MOs
 -- Occupied --
-91.9804 -11.2762 -11.2569 -11.2470 -11.2284 -11.2267 -11.2165  -8.9802
 -6.6611  -6.6606  -6.6600  -1.1608  -1.0553  -0.9954  -0.9462  -0.8817
 -0.7476  -0.7184  -0.6485  -0.5912  -0.5753  -0.5654  -0.5539  -0.5474
 -0.5087  -0.4868  -0.4650  -0.4460  -0.3387  -0.3018

          Ground-State Mulliken Net Atomic Charges

     Atom                 Charge (a.u.)
  ----------------------------------------
      1 C                     0.056842
      2 C                    -0.267927
      3 C                     0.040291
      4 H                     0.180449
      5 C                    -0.259958
      6 S                    -0.002909
      7 C                    -0.273472
      8 H                     0.101831
      9 H                     0.106875
     10 H                     0.107005
     11 C                    -0.372482
     12 H                     0.114650
     13 H                     0.149960
     14 H                     0.123703
     15 H                     0.195143
  ----------------------------------------
  Sum of atomic charges =     0.000000

                    Cartesian Multipole Moments
 -----------------------------------------------------------------
    Charge (ESU x 10^10)
                -0.0000
    Dipole Moment (Debye)
         X      -0.2086      Y      -0.0443      Z       0.8640
       Tot       0.8899
    Quadrupole Moments (Debye-Ang)
        XX     -53.7718     XY       0.6164     YY     -42.1087
        XZ      -0.1947     YZ       1.4072     ZZ     -48.8218

 Total job time:  156.40s(wall), 154.80s(cpu)
        *  Thank you very much for using Q-Chem.  Have a nice day.  *
