 Q-Chem 5.4, Q-Chem, Inc., Pleasanton, CA (2021)
 Q-Chem 5.4.0 for Intel X86 EM64T Linux

User input:
--------------------------------------------------------------
$molecule
0 1
C	-0.179937	-0.553189	0.012832
C	0.043563	0.281011	1.112232
C	0.401763	1.617711	0.789532
H	-0.051837	-0.075289	2.148932
C	0.458963	1.830811	-0.599668
S	0.063963	0.357111	-1.473968
C	0.683363	2.668411	1.827432
H	0.573163	2.257311	2.849532
H	-0.009237	3.531411	1.739032
H	1.714663	3.069411	1.739032
C	-0.179937	-1.993889	0.012832
H	0.834863	-1.994089	0.382332
H	0.100263	-2.697689	-0.756968
H	-0.503837	-2.512789	0.902832
H	0.704663	2.747711	-1.148768
$end

$rem
JOBTYPE		SP
EXCHANGE	HF
CORRELATION	pRIMP2
BASIS		cc-pvtz
METHOD		rimp2
AUX_BASIS	rimp2-cc-pvtz
SOLVENT_METHOD	PCM
PURECART	11111
SYMMETRY	false
MEM_TOTAL	110000
SCF_CONVERGENCE = 6
THRESH=10
$end

$solvent
dielectric 4.90
$end
--------------------------------------------------------------

             Standard Nuclear Orientation (Angstroms)
    I     Atom           X                Y                Z
 ----------------------------------------------------------------
    1      C      -0.1799370000    -0.5531890000     0.0128320000
    2      C       0.0435630000     0.2810110000     1.1122320000
    3      C       0.4017630000     1.6177110000     0.7895320000
    4      H      -0.0518370000    -0.0752890000     2.1489320000
    5      C       0.4589630000     1.8308110000    -0.5996680000
    6      S       0.0639630000     0.3571110000    -1.4739680000
    7      C       0.6833630000     2.6684110000     1.8274320000
    8      H       0.5731630000     2.2573110000     2.8495320000
    9      H      -0.0092370000     3.5314110000     1.7390320000
   10      H       1.7146630000     3.0694110000     1.7390320000
   11      C      -0.1799370000    -1.9938890000     0.0128320000
   12      H       0.8348630000    -1.9940890000     0.3823320000
   13      H       0.1002630000    -2.6976890000    -0.7569680000
   14      H      -0.5038370000    -2.5127890000     0.9028320000
   15      H       0.7046630000     2.7477110000    -1.1487680000
 ----------------------------------------------------------------

   10    -629.4204787760      6.73e-07  Convergence criterion met
 Total energy in the final basis set =     -629.4204787760
        RIMP2         total energy =      -630.5972158708 a.u.

                    Orbital Energies (a.u.)
 --------------------------------------------------------------

 Alpha MOs
 -- Occupied --
-91.9782 -11.2854 -11.2491 -11.2474 -11.2267 -11.2237 -11.2215  -8.9780
 -6.6590  -6.6584  -6.6578  -1.1613  -1.0561  -0.9981  -0.9400  -0.8829
 -0.7431  -0.7197  -0.6477  -0.5899  -0.5753  -0.5709  -0.5550  -0.5446
 -0.5083  -0.4888  -0.4666  -0.4556  -0.3377  -0.2888

          Ground-State Mulliken Net Atomic Charges

     Atom                 Charge (a.u.)
  ----------------------------------------
      1 C                     0.059666
      2 C                    -0.298776
      3 C                     0.048100
      4 H                     0.174749
      5 C                    -0.280807
      6 S                     0.001288
      7 C                    -0.272653
      8 H                     0.101274
      9 H                     0.107370
     10 H                     0.107065
     11 C                    -0.387379
     12 H                     0.149802
     13 H                     0.161101
     14 H                     0.137073
     15 H                     0.192128
  ----------------------------------------
  Sum of atomic charges =     0.000000

                    Cartesian Multipole Moments
 -----------------------------------------------------------------
    Charge (ESU x 10^10)
                -0.0000
    Dipole Moment (Debye)
         X       0.9685      Y      -0.7262      Z       1.6565
       Tot       2.0517
    Quadrupole Moments (Debye-Ang)
        XX     -53.9989     XY       0.7449     YY     -42.4977
        XZ      -0.0741     YZ      -0.0609     ZZ     -48.5945

 Total job time:  156.89s(wall), 155.52s(cpu)
        *  Thank you very much for using Q-Chem.  Have a nice day.  *
