 Q-Chem 5.4, Q-Chem, Inc., Pleasanton, CA (2021)
 Q-Chem 5.4.0 for Intel X86 EM64T Linux

User input:
--------------------------------------------------------------
$molecule
0 1
C	-0.583108	-0.237127	0.017232
C	0.164792	0.194673	1.116632
C	1.363292	0.886573	0.793932
H	-0.154608	0.010273	2.153332
C	1.554392	0.996873	-0.595268
S	0.233092	0.234073	-1.469568
C	2.305392	1.430473	1.831832
H	1.936692	1.217573	2.853932
H	2.425792	2.530373	1.743432
H	3.318192	0.984673	1.743432
C	-0.583108	-1.677827	0.017232
H	-1.597908	-1.678027	-0.352268
H	-0.863308	-2.381627	0.787032
H	-0.259208	-2.196727	-0.872768
H	2.376492	1.471473	-1.144368
$end

$rem
JOBTYPE		SP
EXCHANGE	HF
CORRELATION	pRIMP2
BASIS		cc-pvtz
METHOD		rimp2
AUX_BASIS	rimp2-cc-pvtz
SOLVENT_METHOD	PCM
PURECART	11111
SYMMETRY	false
MEM_TOTAL	110000
SCF_CONVERGENCE = 6
THRESH=10
$end

$solvent
dielectric 4.90
$end
--------------------------------------------------------------

             Standard Nuclear Orientation (Angstroms)
    I     Atom           X                Y                Z
 ----------------------------------------------------------------
    1      C      -0.5831080000    -0.2371270000     0.0172320000
    2      C       0.1647920000     0.1946730000     1.1166320000
    3      C       1.3632920000     0.8865730000     0.7939320000
    4      H      -0.1546080000     0.0102730000     2.1533320000
    5      C       1.5543920000     0.9968730000    -0.5952680000
    6      S       0.2330920000     0.2340730000    -1.4695680000
    7      C       2.3053920000     1.4304730000     1.8318320000
    8      H       1.9366920000     1.2175730000     2.8539320000
    9      H       2.4257920000     2.5303730000     1.7434320000
   10      H       3.3181920000     0.9846730000     1.7434320000
   11      C      -0.5831080000    -1.6778270000     0.0172320000
   12      H      -1.5979080000    -1.6780270000    -0.3522680000
   13      H      -0.8633080000    -2.3816270000     0.7870320000
   14      H      -0.2592080000    -2.1967270000    -0.8727680000
   15      H       2.3764920000     1.4714730000    -1.1443680000
 ----------------------------------------------------------------

   11    -629.3350854625      6.49e-07  Convergence criterion met
 Total energy in the final basis set =     -629.3350854625
        RIMP2         total energy =      -630.5271894134 a.u.

                    Orbital Energies (a.u.)
 --------------------------------------------------------------

 Alpha MOs
 -- Occupied --
-91.9740 -11.2812 -11.2508 -11.2481 -11.2408 -11.2283 -11.2037  -8.9750
 -6.6558  -6.6549  -6.6547  -1.1718  -1.0550  -0.9963  -0.9413  -0.8803
 -0.7521  -0.7289  -0.6417  -0.5898  -0.5762  -0.5684  -0.5521  -0.5430
 -0.5174  -0.4861  -0.4578  -0.4247  -0.3345  -0.2853

          Ground-State Mulliken Net Atomic Charges

     Atom                 Charge (a.u.)
  ----------------------------------------
      1 C                    -0.121225
      2 C                    -0.109581
      3 C                    -0.017980
      4 H                     0.186380
      5 C                    -0.183843
      6 S                     0.009922
      7 C                    -0.269232
      8 H                     0.101718
      9 H                     0.106398
     10 H                     0.103793
     11 C                    -0.398694
     12 H                     0.122535
     13 H                     0.142655
     14 H                     0.128801
     15 H                     0.198353
  ----------------------------------------
  Sum of atomic charges =     0.000000

                    Cartesian Multipole Moments
 -----------------------------------------------------------------
    Charge (ESU x 10^10)
                -0.0000
    Dipole Moment (Debye)
         X       1.9206      Y       0.0972      Z       1.5470
       Tot       2.4680
    Quadrupole Moments (Debye-Ang)
        XX     -47.8608     XY       5.2298     YY     -50.1244
        XZ      -0.5827     YZ       0.2113     ZZ     -47.4957

 Total job time:  175.34s(wall), 174.63s(cpu)
        *  Thank you very much for using Q-Chem.  Have a nice day.  *
