 Q-Chem 5.4, Q-Chem, Inc., Pleasanton, CA (2021)
 Q-Chem 5.4.0 for Intel X86 EM64T Linux

User input:
--------------------------------------------------------------
$molecule
0 1
C	-0.062703	-0.573729	0.011685
C	0.012597	0.286571	1.111085
C	0.133197	1.665271	0.788385
H	-0.019503	-0.080829	2.147785
C	0.152497	1.885071	-0.600815
S	0.019497	0.365071	-1.475115
C	0.228097	2.748871	1.826285
H	0.190997	2.324771	2.848385
H	-0.603903	3.478371	1.737885
H	1.174097	3.322871	1.737885
C	-0.062703	-2.014429	0.011685
H	0.631397	-2.014129	0.839085
H	-0.690303	-2.718229	0.538185
H	0.662797	-2.533329	-0.597115
H	0.235197	2.830671	-1.149915
$end

$rem
JOBTYPE		SP
EXCHANGE	HF
CORRELATION	pRIMP2
BASIS		cc-pvtz
METHOD		rimp2
AUX_BASIS	rimp2-cc-pvtz
SOLVENT_METHOD	PCM
PURECART	11111
SYMMETRY	false
MEM_TOTAL	110000
SCF_CONVERGENCE = 6
THRESH=10
$end

$solvent
dielectric 4.90
$end
--------------------------------------------------------------

             Standard Nuclear Orientation (Angstroms)
    I     Atom           X                Y                Z
 ----------------------------------------------------------------
    1      C      -0.0627030000    -0.5737290000     0.0116850000
    2      C       0.0125970000     0.2865710000     1.1110850000
    3      C       0.1331970000     1.6652710000     0.7883850000
    4      H      -0.0195030000    -0.0808290000     2.1477850000
    5      C       0.1524970000     1.8850710000    -0.6008150000
    6      S       0.0194970000     0.3650710000    -1.4751150000
    7      C       0.2280970000     2.7488710000     1.8262850000
    8      H       0.1909970000     2.3247710000     2.8483850000
    9      H      -0.6039030000     3.4783710000     1.7378850000
   10      H       1.1740970000     3.3228710000     1.7378850000
   11      C      -0.0627030000    -2.0144290000     0.0116850000
   12      H       0.6313970000    -2.0141290000     0.8390850000
   13      H      -0.6903030000    -2.7182290000     0.5381850000
   14      H       0.6627970000    -2.5333290000    -0.5971150000
   15      H       0.2351970000     2.8306710000    -1.1499150000
 ----------------------------------------------------------------

   10    -629.4234339698      5.57e-07  Convergence criterion met
 Total energy in the final basis set =     -629.4234339698
        RIMP2         total energy =      -630.6007281743 a.u.

                    Orbital Energies (a.u.)
 --------------------------------------------------------------

 Alpha MOs
 -- Occupied --
-91.9773 -11.2811 -11.2530 -11.2471 -11.2286 -11.2270 -11.2181  -8.9772
 -6.6581  -6.6576  -6.6570  -1.1606  -1.0547  -0.9989  -0.9401  -0.8837
 -0.7424  -0.7219  -0.6494  -0.5898  -0.5748  -0.5662  -0.5598  -0.5431
 -0.5089  -0.4878  -0.4672  -0.4472  -0.3371  -0.2965

          Ground-State Mulliken Net Atomic Charges

     Atom                 Charge (a.u.)
  ----------------------------------------
      1 C                     0.066090
      2 C                    -0.275967
      3 C                     0.034297
      4 H                     0.176593
      5 C                    -0.263271
      6 S                    -0.004942
      7 C                    -0.274500
      8 H                     0.101165
      9 H                     0.107286
     10 H                     0.107120
     11 C                    -0.384756
     12 H                     0.133465
     13 H                     0.148783
     14 H                     0.135923
     15 H                     0.192713
  ----------------------------------------
  Sum of atomic charges =     0.000000

                    Cartesian Multipole Moments
 -----------------------------------------------------------------
    Charge (ESU x 10^10)
                -0.0000
    Dipole Moment (Debye)
         X       0.5696      Y      -0.3577      Z       1.9634
       Tot       2.0754
    Quadrupole Moments (Debye-Ang)
        XX     -53.9765     XY      -0.1834     YY     -42.1850
        XZ      -0.2900     YZ      -0.8681     ZZ     -48.7306

 Total job time:  161.95s(wall), 160.39s(cpu)
        *  Thank you very much for using Q-Chem.  Have a nice day.  *
