 Q-Chem 5.4, Q-Chem, Inc., Pleasanton, CA (2021)
 Q-Chem 5.4.0 for Intel X86 EM64T Linux

User input:
--------------------------------------------------------------
$molecule
0 1
C	-0.116403	-0.566007	0.010353
C	0.033597	0.284493	1.109753
C	0.273897	1.647393	0.787053
H	-0.030503	-0.078707	2.146453
C	0.312297	1.864693	-0.602147
S	0.047297	0.362093	-1.476447
C	0.462797	2.718593	1.824953
H	0.388897	2.299393	2.847053
H	-0.302403	3.517893	1.736553
H	1.455297	3.207893	1.736553
C	-0.116403	-2.006707	0.010353
H	-0.304103	-2.006907	1.073953
H	0.690297	-2.710507	0.152653
H	-1.049103	-2.525607	-0.154147
H	0.477097	2.799393	-1.151247
$end

$rem
JOBTYPE		SP
EXCHANGE	HF
CORRELATION	pRIMP2
BASIS		cc-pvtz
METHOD		rimp2
AUX_BASIS	rimp2-cc-pvtz
SOLVENT_METHOD	PCM
PURECART	11111
SYMMETRY	false
MEM_TOTAL	110000
SCF_CONVERGENCE = 6
THRESH=10
$end

$solvent
dielectric 4.90
$end
--------------------------------------------------------------

             Standard Nuclear Orientation (Angstroms)
    I     Atom           X                Y                Z
 ----------------------------------------------------------------
    1      C      -0.1164030000    -0.5660070000     0.0103530000
    2      C       0.0335970000     0.2844930000     1.1097530000
    3      C       0.2738970000     1.6473930000     0.7870530000
    4      H      -0.0305030000    -0.0787070000     2.1464530000
    5      C       0.3122970000     1.8646930000    -0.6021470000
    6      S       0.0472970000     0.3620930000    -1.4764470000
    7      C       0.4627970000     2.7185930000     1.8249530000
    8      H       0.3888970000     2.2993930000     2.8470530000
    9      H      -0.3024030000     3.5178930000     1.7365530000
   10      H       1.4552970000     3.2078930000     1.7365530000
   11      C      -0.1164030000    -2.0067070000     0.0103530000
   12      H      -0.3041030000    -2.0069070000     1.0739530000
   13      H       0.6902970000    -2.7105070000     0.1526530000
   14      H      -1.0491030000    -2.5256070000    -0.1541470000
   15      H       0.4770970000     2.7993930000    -1.1512470000
 ----------------------------------------------------------------

   10    -629.4228920239      4.93e-07  Convergence criterion met
 Total energy in the final basis set =     -629.4228920239
        RIMP2         total energy =      -630.6012479398 a.u.

                    Orbital Energies (a.u.)
 --------------------------------------------------------------

 Alpha MOs
 -- Occupied --
-91.9748 -11.2764 -11.2582 -11.2471 -11.2349 -11.2275 -11.2160  -8.9749
 -6.6558  -6.6553  -6.6548  -1.1612  -1.0538  -0.9996  -0.9397  -0.8845
 -0.7424  -0.7244  -0.6490  -0.5905  -0.5780  -0.5666  -0.5593  -0.5419
 -0.5110  -0.4845  -0.4675  -0.4370  -0.3380  -0.3041

          Ground-State Mulliken Net Atomic Charges

     Atom                 Charge (a.u.)
  ----------------------------------------
      1 C                     0.056674
      2 C                    -0.269262
      3 C                     0.033491
      4 H                     0.177760
      5 C                    -0.250535
      6 S                    -0.007709
      7 C                    -0.273260
      8 H                     0.101116
      9 H                     0.107058
     10 H                     0.107313
     11 C                    -0.366053
     12 H                     0.118401
     13 H                     0.141048
     14 H                     0.130509
     15 H                     0.193449
  ----------------------------------------
  Sum of atomic charges =     0.000000

                    Cartesian Multipole Moments
 -----------------------------------------------------------------
    Charge (ESU x 10^10)
                -0.0000
    Dipole Moment (Debye)
         X       0.1406      Y      -0.0316      Z       2.1455
       Tot       2.1504
    Quadrupole Moments (Debye-Ang)
        XX     -53.4332     XY       1.6766     YY     -42.4649
        XZ       0.0786     YZ      -1.1044     ZZ     -48.9378

 Total job time:  156.99s(wall), 155.17s(cpu)
        *  Thank you very much for using Q-Chem.  Have a nice day.  *
