 Q-Chem 5.4, Q-Chem, Inc., Pleasanton, CA (2021)
 Q-Chem 5.4.0 for Intel X86 EM64T Linux

User input:
--------------------------------------------------------------
$molecule
0 1
C	-0.432127	-0.417594	0.017956
C	0.122973	0.243906	1.117356
C	1.012573	1.304106	0.794656
H	-0.114027	-0.038594	2.154056
C	1.154473	1.473106	-0.594544
S	0.173673	0.304306	-1.468844
C	1.711773	2.137306	1.832556
H	1.438173	1.811306	2.854656
H	1.448773	3.212106	1.744156
H	2.815973	2.064906	1.744156
C	-0.432127	-1.858294	0.017956
H	-1.367327	-1.858494	-0.522144
H	-0.841727	-2.562094	0.727356
H	0.041473	-2.377194	-0.802244
H	1.764573	2.200206	-1.143644
$end

$rem
JOBTYPE		SP
EXCHANGE	HF
CORRELATION	pRIMP2
BASIS		cc-pvtz
METHOD		rimp2
AUX_BASIS	rimp2-cc-pvtz
SOLVENT_METHOD	PCM
PURECART	11111
SYMMETRY	false
MEM_TOTAL	110000
SCF_CONVERGENCE = 6
THRESH=10
$end

$solvent
dielectric 4.90
$end
--------------------------------------------------------------

             Standard Nuclear Orientation (Angstroms)
    I     Atom           X                Y                Z
 ----------------------------------------------------------------
    1      C      -0.4321270000    -0.4175940000     0.0179560000
    2      C       0.1229730000     0.2439060000     1.1173560000
    3      C       1.0125730000     1.3041060000     0.7946560000
    4      H      -0.1140270000    -0.0385940000     2.1540560000
    5      C       1.1544730000     1.4731060000    -0.5945440000
    6      S       0.1736730000     0.3043060000    -1.4688440000
    7      C       1.7117730000     2.1373060000     1.8325560000
    8      H       1.4381730000     1.8113060000     2.8546560000
    9      H       1.4487730000     3.2121060000     1.7441560000
   10      H       2.8159730000     2.0649060000     1.7441560000
   11      C      -0.4321270000    -1.8582940000     0.0179560000
   12      H      -1.3673270000    -1.8584940000    -0.5221440000
   13      H      -0.8417270000    -2.5620940000     0.7273560000
   14      H       0.0414730000    -2.3771940000    -0.8022440000
   15      H       1.7645730000     2.2002060000    -1.1436440000
 ----------------------------------------------------------------

   10    -629.3835716229      5.97e-07  Convergence criterion met
 Total energy in the final basis set =     -629.3835716229
        RIMP2         total energy =      -630.5682531725 a.u.

                    Orbital Energies (a.u.)
 --------------------------------------------------------------

 Alpha MOs
 -- Occupied --
-91.9773 -11.2650 -11.2640 -11.2474 -11.2343 -11.2271 -11.2113  -8.9775
 -6.6585  -6.6578  -6.6573  -1.1642  -1.0543  -0.9951  -0.9434  -0.8814
 -0.7477  -0.7219  -0.6442  -0.5881  -0.5742  -0.5688  -0.5524  -0.5450
 -0.5133  -0.4856  -0.4575  -0.4457  -0.3372  -0.2898

          Ground-State Mulliken Net Atomic Charges

     Atom                 Charge (a.u.)
  ----------------------------------------
      1 C                    -0.033264
      2 C                    -0.213072
      3 C                     0.028297
      4 H                     0.180906
      5 C                    -0.235494
      6 S                     0.001153
      7 C                    -0.270828
      8 H                     0.101421
      9 H                     0.106999
     10 H                     0.105410
     11 C                    -0.381718
     12 H                     0.123830
     13 H                     0.151140
     14 H                     0.139771
     15 H                     0.195447
  ----------------------------------------
  Sum of atomic charges =     0.000000

                    Cartesian Multipole Moments
 -----------------------------------------------------------------
    Charge (ESU x 10^10)
                -0.0000
    Dipole Moment (Debye)
         X       0.6773      Y      -0.0482      Z       1.2555
       Tot       1.4274
    Quadrupole Moments (Debye-Ang)
        XX     -50.4822     XY       5.6258     YY     -46.2902
        XZ      -0.2679     YZ       0.4884     ZZ     -48.2486

 Total job time:  155.72s(wall), 154.70s(cpu)
        *  Thank you very much for using Q-Chem.  Have a nice day.  *
