 Q-Chem 5.4, Q-Chem, Inc., Pleasanton, CA (2021)
 Q-Chem 5.4.0 for Intel X86 EM64T Linux

User input:
--------------------------------------------------------------
$molecule
0 1
C	-0.227134	-0.535397	0.015309
C	0.068266	0.276103	1.114709
C	0.541566	1.576503	0.792009
H	-0.057834	-0.070397	2.151409
C	0.617066	1.783903	-0.597191
S	0.095166	0.350203	-1.471491
C	0.913666	2.598703	1.829909
H	0.768066	2.198703	2.852009
H	0.298866	3.518703	1.741509
H	1.976066	2.908303	1.741509
C	-0.227134	-1.976097	0.015309
H	-1.290734	-1.975797	-0.172391
H	-0.084834	-2.679897	-0.791391
H	-0.391634	-2.494997	0.948009
H	0.941766	2.675903	-1.146291
$end

$rem
JOBTYPE		SP
EXCHANGE	HF
CORRELATION	pRIMP2
BASIS		cc-pvtz
METHOD		rimp2
AUX_BASIS	rimp2-cc-pvtz
SOLVENT_METHOD	PCM
PURECART	11111
SYMMETRY	false
MEM_TOTAL	110000
SCF_CONVERGENCE = 6
THRESH=10
$end

$solvent
dielectric 4.90
$end
--------------------------------------------------------------

             Standard Nuclear Orientation (Angstroms)
    I     Atom           X                Y                Z
 ----------------------------------------------------------------
    1      C      -0.2271340000    -0.5353970000     0.0153090000
    2      C       0.0682660000     0.2761030000     1.1147090000
    3      C       0.5415660000     1.5765030000     0.7920090000
    4      H      -0.0578340000    -0.0703970000     2.1514090000
    5      C       0.6170660000     1.7839030000    -0.5971910000
    6      S       0.0951660000     0.3502030000    -1.4714910000
    7      C       0.9136660000     2.5987030000     1.8299090000
    8      H       0.7680660000     2.1987030000     2.8520090000
    9      H       0.2988660000     3.5187030000     1.7415090000
   10      H       1.9760660000     2.9083030000     1.7415090000
   11      C      -0.2271340000    -1.9760970000     0.0153090000
   12      H      -1.2907340000    -1.9757970000    -0.1723910000
   13      H      -0.0848340000    -2.6798970000    -0.7913910000
   14      H      -0.3916340000    -2.4949970000     0.9480090000
   15      H       0.9417660000     2.6759030000    -1.1462910000
 ----------------------------------------------------------------

   10    -629.4125390160      6.21e-07  Convergence criterion met
 Total energy in the final basis set =     -629.4125390160
        RIMP2         total energy =      -630.5908145676 a.u.

                    Orbital Energies (a.u.)
 --------------------------------------------------------------

 Alpha MOs
 -- Occupied --
-91.9772 -11.2809 -11.2521 -11.2471 -11.2265 -11.2264 -11.2187  -8.9771
 -6.6581  -6.6576  -6.6570  -1.1607  -1.0553  -0.9969  -0.9425  -0.8827
 -0.7445  -0.7193  -0.6462  -0.5882  -0.5734  -0.5723  -0.5512  -0.5457
 -0.5101  -0.4927  -0.4582  -0.4564  -0.3381  -0.2880

          Ground-State Mulliken Net Atomic Charges

     Atom                 Charge (a.u.)
  ----------------------------------------
      1 C                     0.033984
      2 C                    -0.282591
      3 C                     0.045581
      4 H                     0.179634
      5 C                    -0.271260
      6 S                    -0.002622
      7 C                    -0.271858
      8 H                     0.101315
      9 H                     0.107086
     10 H                     0.106890
     11 C                    -0.375271
     12 H                     0.134745
     13 H                     0.162798
     14 H                     0.138274
     15 H                     0.193293
  ----------------------------------------
  Sum of atomic charges =     0.000000

                    Cartesian Multipole Moments
 -----------------------------------------------------------------
    Charge (ESU x 10^10)
                -0.0000
    Dipole Moment (Debye)
         X      -0.2846      Y      -0.5521      Z       1.3309
       Tot       1.4687
    Quadrupole Moments (Debye-Ang)
        XX     -53.1552     XY       4.3275     YY     -42.9782
        XZ      -0.0117     YZ       0.6654     ZZ     -48.4919

 Total job time:  158.58s(wall), 156.10s(cpu)
        *  Thank you very much for using Q-Chem.  Have a nice day.  *
