 Q-Chem 5.4, Q-Chem, Inc., Pleasanton, CA (2021)
 Q-Chem 5.4.0 for Intel X86 EM64T Linux

User input:
--------------------------------------------------------------
$molecule
0 1
C	-0.439955	-0.417597	0.017955
C	0.115145	0.243903	1.117355
C	1.004745	1.304103	0.794655
H	-0.121855	-0.038597	2.154055
C	1.146645	1.473103	-0.594545
S	0.165845	0.304303	-1.468845
C	1.703945	2.137303	1.832555
H	1.430345	1.811303	2.854655
H	1.440945	3.212103	1.744155
H	2.808145	2.064903	1.744155
C	-0.439955	-1.858297	0.017955
H	0.495445	-1.857997	-0.521945
H	-0.030455	-2.562097	0.727455
H	-0.913555	-2.377197	-0.802245
H	1.756745	2.200203	-1.143645
$end

$rem
JOBTYPE		SP
EXCHANGE	HF
CORRELATION	pRIMP2
BASIS		cc-pvtz
METHOD		rimp2
AUX_BASIS	rimp2-cc-pvtz
SOLVENT_METHOD	PCM
PURECART	11111
SYMMETRY	false
MEM_TOTAL	110000
SCF_CONVERGENCE = 6
THRESH=10
$end

$solvent
dielectric 4.90
$end
--------------------------------------------------------------

             Standard Nuclear Orientation (Angstroms)
    I     Atom           X                Y                Z
 ----------------------------------------------------------------
    1      C      -0.4399550000    -0.4175970000     0.0179550000
    2      C       0.1151450000     0.2439030000     1.1173550000
    3      C       1.0047450000     1.3041030000     0.7946550000
    4      H      -0.1218550000    -0.0385970000     2.1540550000
    5      C       1.1466450000     1.4731030000    -0.5945450000
    6      S       0.1658450000     0.3043030000    -1.4688450000
    7      C       1.7039450000     2.1373030000     1.8325550000
    8      H       1.4303450000     1.8113030000     2.8546550000
    9      H       1.4409450000     3.2121030000     1.7441550000
   10      H       2.8081450000     2.0649030000     1.7441550000
   11      C      -0.4399550000    -1.8582970000     0.0179550000
   12      H       0.4954450000    -1.8579970000    -0.5219450000
   13      H      -0.0304550000    -2.5620970000     0.7274550000
   14      H      -0.9135550000    -2.3771970000    -0.8022450000
   15      H       1.7567450000     2.2002030000    -1.1436450000
 ----------------------------------------------------------------

   10    -629.3908056568      6.57e-07  Convergence criterion met
 Total energy in the final basis set =     -629.3908056568
        RIMP2         total energy =      -630.5734857330 a.u.

                    Orbital Energies (a.u.)
 --------------------------------------------------------------

 Alpha MOs
 -- Occupied --
-91.9736 -11.2719 -11.2627 -11.2481 -11.2342 -11.2276 -11.2160  -8.9745
 -6.6554  -6.6548  -6.6542  -1.1675  -1.0572  -0.9949  -0.9428  -0.8801
 -0.7487  -0.7223  -0.6472  -0.5851  -0.5822  -0.5647  -0.5527  -0.5473
 -0.5114  -0.4899  -0.4612  -0.4466  -0.3403  -0.2901

          Ground-State Mulliken Net Atomic Charges

     Atom                 Charge (a.u.)
  ----------------------------------------
      1 C                     0.019881
      2 C                    -0.274255
      3 C                     0.040209
      4 H                     0.178977
      5 C                    -0.244344
      6 S                    -0.006830
      7 C                    -0.269913
      8 H                     0.101676
      9 H                     0.107905
     10 H                     0.106302
     11 C                    -0.371495
     12 H                     0.139696
     13 H                     0.155613
     14 H                     0.122591
     15 H                     0.193988
  ----------------------------------------
  Sum of atomic charges =     0.000000

                    Cartesian Multipole Moments
 -----------------------------------------------------------------
    Charge (ESU x 10^10)
                -0.0000
    Dipole Moment (Debye)
         X       1.7183      Y      -0.2563      Z       1.2904
       Tot       2.1641
    Quadrupole Moments (Debye-Ang)
        XX     -51.3578     XY       3.3534     YY     -46.1478
        XZ       0.3551     YZ       0.6470     ZZ     -48.4408

 Total job time:  161.39s(wall), 159.70s(cpu)
        *  Thank you very much for using Q-Chem.  Have a nice day.  *
