 Q-Chem 5.4, Q-Chem, Inc., Pleasanton, CA (2021)
 Q-Chem 5.4.0 for Intel X86 EM64T Linux

User input:
--------------------------------------------------------------
$molecule
0 1
C	-0.588044	-0.237129	0.010180
C	0.159856	0.194671	1.109580
C	1.358356	0.886571	0.786880
H	-0.159544	0.010271	2.146280
C	1.549456	0.996871	-0.602320
S	0.228156	0.234071	-1.476620
C	2.300456	1.430471	1.824780
H	1.931756	1.217571	2.846880
H	2.420856	2.530371	1.736380
H	3.313256	0.984671	1.736380
C	-0.588044	-1.677829	0.010180
H	-0.588144	-1.677529	1.090180
H	-1.407244	-2.381629	0.010080
H	0.359056	-2.196729	0.010180
H	2.371556	1.471471	-1.151420
$end

$rem
JOBTYPE		SP
EXCHANGE	HF
CORRELATION	pRIMP2
BASIS		cc-pvtz
METHOD		rimp2
AUX_BASIS	rimp2-cc-pvtz
SOLVENT_METHOD	PCM
PURECART	11111
SYMMETRY	false
MEM_TOTAL	110000
SCF_CONVERGENCE = 6
THRESH=10
$end

$solvent
dielectric 4.90
$end
--------------------------------------------------------------

             Standard Nuclear Orientation (Angstroms)
    I     Atom           X                Y                Z
 ----------------------------------------------------------------
    1      C      -0.5880440000    -0.2371290000     0.0101800000
    2      C       0.1598560000     0.1946710000     1.1095800000
    3      C       1.3583560000     0.8865710000     0.7868800000
    4      H      -0.1595440000     0.0102710000     2.1462800000
    5      C       1.5494560000     0.9968710000    -0.6023200000
    6      S       0.2281560000     0.2340710000    -1.4766200000
    7      C       2.3004560000     1.4304710000     1.8247800000
    8      H       1.9317560000     1.2175710000     2.8468800000
    9      H       2.4208560000     2.5303710000     1.7363800000
   10      H       3.3132560000     0.9846710000     1.7363800000
   11      C      -0.5880440000    -1.6778290000     0.0101800000
   12      H      -0.5881440000    -1.6775290000     1.0901800000
   13      H      -1.4072440000    -2.3816290000     0.0100800000
   14      H       0.3590560000    -2.1967290000     0.0101800000
   15      H       2.3715560000     1.4714710000    -1.1514200000
 ----------------------------------------------------------------

   11    -629.3492561469      4.35e-07  Convergence criterion met
 Total energy in the final basis set =     -629.3492561469
        RIMP2         total energy =      -630.5406746882 a.u.

                    Orbital Energies (a.u.)
 --------------------------------------------------------------

 Alpha MOs
 -- Occupied --
-91.9729 -11.2836 -11.2547 -11.2494 -11.2450 -11.2297 -11.2074  -8.9738
 -6.6546  -6.6537  -6.6535  -1.1759  -1.0573  -1.0025  -0.9330  -0.8829
 -0.7484  -0.7359  -0.6432  -0.5952  -0.5849  -0.5669  -0.5533  -0.5436
 -0.5187  -0.4723  -0.4579  -0.4252  -0.3304  -0.3077

          Ground-State Mulliken Net Atomic Charges

     Atom                 Charge (a.u.)
  ----------------------------------------
      1 C                    -0.096644
      2 C                    -0.125241
      3 C                    -0.018491
      4 H                     0.181298
      5 C                    -0.183067
      6 S                     0.011882
      7 C                    -0.267488
      8 H                     0.101987
      9 H                     0.106845
     10 H                     0.104823
     11 C                    -0.350194
     12 H                     0.102997
     13 H                     0.117641
     14 H                     0.115933
     15 H                     0.197720
  ----------------------------------------
  Sum of atomic charges =     0.000000

                    Cartesian Multipole Moments
 -----------------------------------------------------------------
    Charge (ESU x 10^10)
                -0.0000
    Dipole Moment (Debye)
         X       2.5089      Y       0.2317      Z       2.3116
       Tot       3.4193
    Quadrupole Moments (Debye-Ang)
        XX     -47.7558     XY       4.3810     YY     -50.2171
        XZ      -0.6243     YZ      -0.8881     ZZ     -48.0656

 Total job time:  177.94s(wall), 177.34s(cpu)
        *  Thank you very much for using Q-Chem.  Have a nice day.  *
