 Q-Chem 5.4, Q-Chem, Inc., Pleasanton, CA (2021)
 Q-Chem 5.4.0 for Intel X86 EM64T Linux

User input:
--------------------------------------------------------------
$molecule
0 1
C	-0.282781	-0.512746	0.012109
C	0.082219	0.269954	1.111509
C	0.667119	1.524154	0.788809
H	-0.073681	-0.064346	2.148209
C	0.760419	1.724154	-0.600391
S	0.115519	0.341354	-1.474691
C	1.126819	2.509954	1.826709
H	0.946919	2.124254	2.848809
H	0.594519	3.480154	1.738309
H	2.212119	2.725854	1.738309
C	-0.282781	-1.953446	0.012109
H	-1.218181	-1.953146	0.552009
H	-0.692281	-2.657246	-0.697391
H	0.190819	-2.472346	0.832309
H	1.161519	2.584454	-1.149491
$end

$rem
JOBTYPE		SP
EXCHANGE	HF
CORRELATION	pRIMP2
BASIS		cc-pvtz
METHOD		rimp2
AUX_BASIS	rimp2-cc-pvtz
SOLVENT_METHOD	PCM
PURECART	11111
SYMMETRY	false
MEM_TOTAL	110000
SCF_CONVERGENCE = 6
THRESH=10
$end

$solvent
dielectric 4.90
$end
--------------------------------------------------------------

             Standard Nuclear Orientation (Angstroms)
    I     Atom           X                Y                Z
 ----------------------------------------------------------------
    1      C      -0.2827810000    -0.5127460000     0.0121090000
    2      C       0.0822190000     0.2699540000     1.1115090000
    3      C       0.6671190000     1.5241540000     0.7888090000
    4      H      -0.0736810000    -0.0643460000     2.1482090000
    5      C       0.7604190000     1.7241540000    -0.6003910000
    6      S       0.1155190000     0.3413540000    -1.4746910000
    7      C       1.1268190000     2.5099540000     1.8267090000
    8      H       0.9469190000     2.1242540000     2.8488090000
    9      H       0.5945190000     3.4801540000     1.7383090000
   10      H       2.2121190000     2.7258540000     1.7383090000
   11      C      -0.2827810000    -1.9534460000     0.0121090000
   12      H      -1.2181810000    -1.9531460000     0.5520090000
   13      H      -0.6922810000    -2.6572460000    -0.6973910000
   14      H       0.1908190000    -2.4723460000     0.8323090000
   15      H       1.1615190000     2.5844540000    -1.1494910000
 ----------------------------------------------------------------

   10    -629.4090284099      5.70e-07  Convergence criterion met
 Total energy in the final basis set =     -629.4090284099
        RIMP2         total energy =      -630.5894704081 a.u.

                    Orbital Energies (a.u.)
 --------------------------------------------------------------

 Alpha MOs
 -- Occupied --
-91.9751 -11.2778 -11.2544 -11.2476 -11.2305 -11.2270 -11.2168  -8.9752
 -6.6562  -6.6555  -6.6550  -1.1613  -1.0546  -0.9980  -0.9400  -0.8835
 -0.7431  -0.7214  -0.6461  -0.5889  -0.5760  -0.5675  -0.5569  -0.5436
 -0.5111  -0.4925  -0.4611  -0.4451  -0.3373  -0.2907

          Ground-State Mulliken Net Atomic Charges

     Atom                 Charge (a.u.)
  ----------------------------------------
      1 C                     0.045255
      2 C                    -0.298426
      3 C                     0.049695
      4 H                     0.176053
      5 C                    -0.260953
      6 S                     0.001232
      7 C                    -0.271958
      8 H                     0.101267
      9 H                     0.107106
     10 H                     0.107014
     11 C                    -0.383425
     12 H                     0.134686
     13 H                     0.158340
     14 H                     0.142945
     15 H                     0.191169
  ----------------------------------------
  Sum of atomic charges =     0.000000

                    Cartesian Multipole Moments
 -----------------------------------------------------------------
    Charge (ESU x 10^10)
                -0.0000
    Dipole Moment (Debye)
         X      -0.0329      Y      -0.4227      Z       1.8512
       Tot       1.8992
    Quadrupole Moments (Debye-Ang)
        XX     -52.4133     XY       4.7917     YY     -43.7810
        XZ       0.3250     YZ      -0.2885     ZZ     -48.5575

 Total job time:  156.23s(wall), 155.11s(cpu)
        *  Thank you very much for using Q-Chem.  Have a nice day.  *
