 Q-Chem 5.4, Q-Chem, Inc., Pleasanton, CA (2021)
 Q-Chem 5.4.0 for Intel X86 EM64T Linux

User input:
--------------------------------------------------------------
$molecule
0 1
C	-0.177502	-0.553189	0.010542
C	0.045998	0.281011	1.109942
C	0.404198	1.617711	0.787242
H	-0.049402	-0.075289	2.146642
C	0.461398	1.830811	-0.601958
S	0.066398	0.357111	-1.476258
C	0.685798	2.668411	1.825142
H	0.575598	2.257311	2.847242
H	-0.006802	3.531411	1.736742
H	1.717098	3.069411	1.736742
C	-0.177502	-1.993889	0.010542
H	0.362398	-1.994089	0.945942
H	0.531998	-2.697689	-0.398958
H	-0.997702	-2.512789	0.484142
H	0.707098	2.747711	-1.151058
$end

$rem
JOBTYPE		SP
EXCHANGE	HF
CORRELATION	pRIMP2
BASIS		cc-pvtz
METHOD		rimp2
AUX_BASIS	rimp2-cc-pvtz
SOLVENT_METHOD	PCM
PURECART	11111
SYMMETRY	false
MEM_TOTAL	110000
SCF_CONVERGENCE = 6
THRESH=10
$end

$solvent
dielectric 4.90
$end
--------------------------------------------------------------

             Standard Nuclear Orientation (Angstroms)
    I     Atom           X                Y                Z
 ----------------------------------------------------------------
    1      C      -0.1775020000    -0.5531890000     0.0105420000
    2      C       0.0459980000     0.2810110000     1.1099420000
    3      C       0.4041980000     1.6177110000     0.7872420000
    4      H      -0.0494020000    -0.0752890000     2.1466420000
    5      C       0.4613980000     1.8308110000    -0.6019580000
    6      S       0.0663980000     0.3571110000    -1.4762580000
    7      C       0.6857980000     2.6684110000     1.8251420000
    8      H       0.5755980000     2.2573110000     2.8472420000
    9      H      -0.0068020000     3.5314110000     1.7367420000
   10      H       1.7170980000     3.0694110000     1.7367420000
   11      C      -0.1775020000    -1.9938890000     0.0105420000
   12      H       0.3623980000    -1.9940890000     0.9459420000
   13      H       0.5319980000    -2.6976890000    -0.3989580000
   14      H      -0.9977020000    -2.5127890000     0.4841420000
   15      H       0.7070980000     2.7477110000    -1.1510580000
 ----------------------------------------------------------------

   10    -629.4179789225      5.27e-07  Convergence criterion met
 Total energy in the final basis set =     -629.4179789225
        RIMP2         total energy =      -630.5968496620 a.u.

                    Orbital Energies (a.u.)
 --------------------------------------------------------------

 Alpha MOs
 -- Occupied --
-91.9764 -11.2787 -11.2551 -11.2473 -11.2313 -11.2273 -11.2162  -8.9764
 -6.6573  -6.6567  -6.6562  -1.1615  -1.0544  -0.9993  -0.9390  -0.8839
 -0.7423  -0.7231  -0.6480  -0.5911  -0.5763  -0.5697  -0.5577  -0.5425
 -0.5108  -0.4819  -0.4680  -0.4437  -0.3366  -0.2987

          Ground-State Mulliken Net Atomic Charges

     Atom                 Charge (a.u.)
  ----------------------------------------
      1 C                     0.053660
      2 C                    -0.268805
      3 C                     0.032683
      4 H                     0.175965
      5 C                    -0.258075
      6 S                    -0.003889
      7 C                    -0.272959
      8 H                     0.101140
      9 H                     0.107221
     10 H                     0.106993
     11 C                    -0.384522
     12 H                     0.133711
     13 H                     0.155119
     14 H                     0.129496
     15 H                     0.192264
  ----------------------------------------
  Sum of atomic charges =     0.000000

                    Cartesian Multipole Moments
 -----------------------------------------------------------------
    Charge (ESU x 10^10)
                -0.0000
    Dipole Moment (Debye)
         X       0.6915      Y      -0.2404      Z       2.0627
       Tot       2.1888
    Quadrupole Moments (Debye-Ang)
        XX     -53.4402     XY       1.3062     YY     -42.8673
        XZ      -0.2746     YZ      -0.8584     ZZ     -48.7761

 Total job time:  159.05s(wall), 155.45s(cpu)
        *  Thank you very much for using Q-Chem.  Have a nice day.  *
