 Q-Chem 5.4, Q-Chem, Inc., Pleasanton, CA (2021)
 Q-Chem 5.4.0 for Intel X86 EM64T Linux

User input:
--------------------------------------------------------------
$molecule
0 1
C	-0.122301	-0.566010	0.013103
C	0.027699	0.284490	1.112503
C	0.267999	1.647390	0.789803
H	-0.036401	-0.078710	2.149203
C	0.306399	1.864690	-0.599397
S	0.041399	0.362090	-1.473697
C	0.456899	2.718590	1.827703
H	0.382999	2.299390	2.849803
H	-0.308301	3.517890	1.739303
H	1.449399	3.207890	1.739303
C	-0.122301	-2.006710	0.013103
H	0.812899	-2.006410	0.553203
H	-0.531901	-2.710510	0.722503
H	0.351299	-2.525610	-0.807097
H	0.471199	2.799390	-1.148497
$end

$rem
JOBTYPE		SP
EXCHANGE	HF
CORRELATION	pRIMP2
BASIS		cc-pvtz
METHOD		rimp2
AUX_BASIS	rimp2-cc-pvtz
SOLVENT_METHOD	PCM
PURECART	11111
SYMMETRY	false
MEM_TOTAL	110000
SCF_CONVERGENCE = 6
THRESH=10
$end

$solvent
dielectric 4.90
$end
--------------------------------------------------------------

   10    -629.4221043236      6.39e-07  Convergence criterion met
 Total energy in the final basis set =     -629.4221043236
        RIMP2         total energy =      -630.5986862768 a.u.
 Total job time:  157.48s(wall), 156.02s(cpu)
        *  Thank you very much for using Q-Chem.  Have a nice day.  *
 Q-Chem 5.4, Q-Chem, Inc., Pleasanton, CA (2021)
 Q-Chem 5.4.0 for Intel X86 EM64T Linux

User input:
--------------------------------------------------------------
$molecule
0 1
C	-0.122301	-0.566010	0.013103
C	0.027699	0.284490	1.112503
C	0.267999	1.647390	0.789803
H	-0.036401	-0.078710	2.149203
C	0.306399	1.864690	-0.599397
S	0.041399	0.362090	-1.473697
C	0.456899	2.718590	1.827703
H	0.382999	2.299390	2.849803
H	-0.308301	3.517890	1.739303
H	1.449399	3.207890	1.739303
C	-0.122301	-2.006710	0.013103
H	0.812899	-2.006410	0.553203
H	-0.531901	-2.710510	0.722503
H	0.351299	-2.525610	-0.807097
H	0.471199	2.799390	-1.148497
$end

$rem
JOBTYPE		SP
EXCHANGE	HF
CORRELATION	pRIMP2
BASIS		cc-pvtz
METHOD		rimp2
AUX_BASIS	rimp2-cc-pvtz
SOLVENT_METHOD	PCM
PURECART	11111
SYMMETRY	false
MEM_TOTAL	110000
SCF_CONVERGENCE = 6
THRESH=10
$end

$solvent
dielectric 4.90
$end
--------------------------------------------------------------

             Standard Nuclear Orientation (Angstroms)
    I     Atom           X                Y                Z
 ----------------------------------------------------------------
    1      C      -0.1223010000    -0.5660100000     0.0131030000
    2      C       0.0276990000     0.2844900000     1.1125030000
    3      C       0.2679990000     1.6473900000     0.7898030000
    4      H      -0.0364010000    -0.0787100000     2.1492030000
    5      C       0.3063990000     1.8646900000    -0.5993970000
    6      S       0.0413990000     0.3620900000    -1.4736970000
    7      C       0.4568990000     2.7185900000     1.8277030000
    8      H       0.3829990000     2.2993900000     2.8498030000
    9      H      -0.3083010000     3.5178900000     1.7393030000
   10      H       1.4493990000     3.2078900000     1.7393030000
   11      C      -0.1223010000    -2.0067100000     0.0131030000
   12      H       0.8128990000    -2.0064100000     0.5532030000
   13      H      -0.5319010000    -2.7105100000     0.7225030000
   14      H       0.3512990000    -2.5256100000    -0.8070970000
   15      H       0.4711990000     2.7993900000    -1.1484970000
 ----------------------------------------------------------------

   10    -629.4221043236      6.39e-07  Convergence criterion met
 Total energy in the final basis set =     -629.4221043236
        RIMP2         total energy =      -630.5986862768 a.u.

                    Orbital Energies (a.u.)
 --------------------------------------------------------------

 Alpha MOs
 -- Occupied --
-91.9791 -11.2840 -11.2498 -11.2472 -11.2266 -11.2241 -11.2202  -8.9787
 -6.6597  -6.6591  -6.6586  -1.1607  -1.0556  -0.9981  -0.9405  -0.8830
 -0.7428  -0.7201  -0.6495  -0.5884  -0.5735  -0.5677  -0.5579  -0.5444
 -0.5076  -0.4900  -0.4670  -0.4542  -0.3373  -0.2909

          Ground-State Mulliken Net Atomic Charges

     Atom                 Charge (a.u.)
  ----------------------------------------
      1 C                     0.063035
      2 C                    -0.290869
      3 C                     0.043370
      4 H                     0.174599
      5 C                    -0.276079
      6 S                     0.001935
      7 C                    -0.273984
      8 H                     0.101226
      9 H                     0.107310
     10 H                     0.107036
     11 C                    -0.387945
     12 H                     0.144743
     13 H                     0.156764
     14 H                     0.136219
     15 H                     0.192641
  ----------------------------------------
  Sum of atomic charges =     0.000000

                    Cartesian Multipole Moments
 -----------------------------------------------------------------
    Charge (ESU x 10^10)
                -0.0000
    Dipole Moment (Debye)
         X       0.8317      Y      -0.6129      Z       1.7473
       Tot       2.0298
    Quadrupole Moments (Debye-Ang)
        XX     -54.1267     XY       0.2028     YY     -42.2621
        XZ      -0.1851     YZ      -0.5364     ZZ     -48.5896

 Total job time:  155.71s(wall), 154.83s(cpu)
        *  Thank you very much for using Q-Chem.  Have a nice day.  *
