 Q-Chem 5.4, Q-Chem, Inc., Pleasanton, CA (2021)
 Q-Chem 5.4.0 for Intel X86 EM64T Linux

User input:
--------------------------------------------------------------
$molecule
0 1
C	-0.440403	-0.417597	0.017231
C	0.114697	0.243903	1.116631
C	1.004297	1.304103	0.793931
H	-0.122303	-0.038597	2.153331
C	1.146197	1.473103	-0.595269
S	0.165397	0.304303	-1.469569
C	1.703497	2.137303	1.831831
H	1.429897	1.811303	2.853931
H	1.440497	3.212103	1.743431
H	2.807697	2.064903	1.743431
C	-0.440403	-1.858297	0.017231
H	0.574497	-1.857997	-0.352069
H	-0.160303	-2.562097	0.787031
H	-0.764303	-2.377197	-0.872769
H	1.756297	2.200203	-1.144369
$end

$rem
JOBTYPE		SP
EXCHANGE	HF
CORRELATION	pRIMP2
BASIS		cc-pvtz
METHOD		rimp2
AUX_BASIS	rimp2-cc-pvtz
SOLVENT_METHOD	PCM
PURECART	11111
SYMMETRY	false
MEM_TOTAL	110000
SCF_CONVERGENCE = 6
THRESH=10
$end

$solvent
dielectric 4.90
$end
--------------------------------------------------------------

             Standard Nuclear Orientation (Angstroms)
    I     Atom           X                Y                Z
 ----------------------------------------------------------------
    1      C      -0.4404030000    -0.4175970000     0.0172310000
    2      C       0.1146970000     0.2439030000     1.1166310000
    3      C       1.0042970000     1.3041030000     0.7939310000
    4      H      -0.1223030000    -0.0385970000     2.1533310000
    5      C       1.1461970000     1.4731030000    -0.5952690000
    6      S       0.1653970000     0.3043030000    -1.4695690000
    7      C       1.7034970000     2.1373030000     1.8318310000
    8      H       1.4298970000     1.8113030000     2.8539310000
    9      H       1.4404970000     3.2121030000     1.7434310000
   10      H       2.8076970000     2.0649030000     1.7434310000
   11      C      -0.4404030000    -1.8582970000     0.0172310000
   12      H       0.5744970000    -1.8579970000    -0.3520690000
   13      H      -0.1603030000    -2.5620970000     0.7870310000
   14      H      -0.7643030000    -2.3771970000    -0.8727690000
   15      H       1.7562970000     2.2002030000    -1.1443690000
 ----------------------------------------------------------------

   10    -629.3928950956      6.43e-07  Convergence criterion met
 Total energy in the final basis set =     -629.3928950956
        RIMP2         total energy =      -630.5752706279 a.u.

                    Orbital Energies (a.u.)
 --------------------------------------------------------------

 Alpha MOs
 -- Occupied --
-91.9745 -11.2739 -11.2615 -11.2484 -11.2322 -11.2275 -11.2180  -8.9753
 -6.6562  -6.6556  -6.6550  -1.1675  -1.0574  -0.9954  -0.9419  -0.8806
 -0.7480  -0.7224  -0.6475  -0.5849  -0.5825  -0.5647  -0.5530  -0.5469
 -0.5098  -0.4928  -0.4611  -0.4491  -0.3403  -0.2888

          Ground-State Mulliken Net Atomic Charges

     Atom                 Charge (a.u.)
  ----------------------------------------
      1 C                     0.023932
      2 C                    -0.281420
      3 C                     0.045497
      4 H                     0.177763
      5 C                    -0.251262
      6 S                    -0.004455
      7 C                    -0.269918
      8 H                     0.101779
      9 H                     0.107910
     10 H                     0.106256
     11 C                    -0.368655
     12 H                     0.140363
     13 H                     0.154438
     14 H                     0.123793
     15 H                     0.193978
  ----------------------------------------
  Sum of atomic charges =     0.000000

                    Cartesian Multipole Moments
 -----------------------------------------------------------------
    Charge (ESU x 10^10)
                -0.0000
    Dipole Moment (Debye)
         X       1.7092      Y      -0.3510      Z       1.3663
       Tot       2.2162
    Quadrupole Moments (Debye-Ang)
        XX     -51.4933     XY       3.3652     YY     -46.0225
        XZ       0.3043     YZ       0.3979     ZZ     -48.4243

 Total job time:  161.78s(wall), 159.71s(cpu)
        *  Thank you very much for using Q-Chem.  Have a nice day.  *
