 Q-Chem 5.4, Q-Chem, Inc., Pleasanton, CA (2021)
 Q-Chem 5.4.0 for Intel X86 EM64T Linux

User input:
--------------------------------------------------------------
$molecule
0 1
C	-0.439954	-0.417594	0.012108
C	0.115146	0.243906	1.111508
C	1.004746	1.304106	0.788808
H	-0.121854	-0.038594	2.148208
C	1.146646	1.473106	-0.600392
S	0.165846	0.304306	-1.474692
C	1.703946	2.137306	1.826708
H	1.430346	1.811306	2.848808
H	1.440946	3.212106	1.738308
H	2.808146	2.064906	1.738308
C	-0.439954	-1.858294	0.012108
H	0.495246	-1.858494	0.552208
H	-0.030354	-2.562094	-0.697292
H	-0.913554	-2.377194	0.832308
H	1.756746	2.200206	-1.149492
$end

$rem
JOBTYPE		SP
EXCHANGE	HF
CORRELATION	pRIMP2
BASIS		cc-pvtz
METHOD		rimp2
AUX_BASIS	rimp2-cc-pvtz
SOLVENT_METHOD	PCM
PURECART	11111
SYMMETRY	false
MEM_TOTAL	110000
SCF_CONVERGENCE = 6
THRESH=10
$end

$solvent
dielectric 4.90
$end
--------------------------------------------------------------

             Standard Nuclear Orientation (Angstroms)
    I     Atom           X                Y                Z
 ----------------------------------------------------------------
    1      C      -0.4399540000    -0.4175940000     0.0121080000
    2      C       0.1151460000     0.2439060000     1.1115080000
    3      C       1.0047460000     1.3041060000     0.7888080000
    4      H      -0.1218540000    -0.0385940000     2.1482080000
    5      C       1.1466460000     1.4731060000    -0.6003920000
    6      S       0.1658460000     0.3043060000    -1.4746920000
    7      C       1.7039460000     2.1373060000     1.8267080000
    8      H       1.4303460000     1.8113060000     2.8488080000
    9      H       1.4409460000     3.2121060000     1.7383080000
   10      H       2.8081460000     2.0649060000     1.7383080000
   11      C      -0.4399540000    -1.8582940000     0.0121080000
   12      H       0.4952460000    -1.8584940000     0.5522080000
   13      H      -0.0303540000    -2.5620940000    -0.6972920000
   14      H      -0.9135540000    -2.3771940000     0.8323080000
   15      H       1.7567460000     2.2002060000    -1.1494920000
 ----------------------------------------------------------------

   10    -629.3869486231      5.95e-07  Convergence criterion met
 Total energy in the final basis set =     -629.3869486231
        RIMP2         total energy =      -630.5721086224 a.u.

                    Orbital Energies (a.u.)
 --------------------------------------------------------------

 Alpha MOs
 -- Occupied --
-91.9787 -11.2734 -11.2594 -11.2489 -11.2308 -11.2277 -11.2148  -8.9786
 -6.6595  -6.6589  -6.6585  -1.1670  -1.0560  -0.9986  -0.9368  -0.8824
 -0.7446  -0.7241  -0.6452  -0.5888  -0.5780  -0.5723  -0.5546  -0.5445
 -0.5119  -0.4804  -0.4595  -0.4552  -0.3359  -0.2882

          Ground-State Mulliken Net Atomic Charges

     Atom                 Charge (a.u.)
  ----------------------------------------
      1 C                    -0.003667
      2 C                    -0.233417
      3 C                     0.024661
      4 H                     0.176882
      5 C                    -0.254763
      6 S                     0.011575
      7 C                    -0.269293
      8 H                     0.101682
      9 H                     0.107493
     10 H                     0.105393
     11 C                    -0.387889
     12 H                     0.147041
     13 H                     0.158403
     14 H                     0.122146
     15 H                     0.193754
  ----------------------------------------
  Sum of atomic charges =     0.000000

                    Cartesian Multipole Moments
 -----------------------------------------------------------------
    Charge (ESU x 10^10)
                -0.0000
    Dipole Moment (Debye)
         X       1.6261      Y      -0.3225      Z       1.7929
       Tot       2.4419
    Quadrupole Moments (Debye-Ang)
        XX     -51.4509     XY       3.2811     YY     -46.3511
        XZ      -0.1896     YZ      -0.4255     ZZ     -48.2297

 Total job time:  162.39s(wall), 160.00s(cpu)
        *  Thank you very much for using Q-Chem.  Have a nice day.  *
