 Q-Chem 5.4, Q-Chem, Inc., Pleasanton, CA (2021)
 Q-Chem 5.4.0 for Intel X86 EM64T Linux

User input:
--------------------------------------------------------------
$molecule
0 1
C	-0.131540	-0.566819	0.014457
C	0.018460	0.283681	1.113857
C	0.258760	1.646581	0.791157
H	-0.045640	-0.079519	2.150557
C	0.297160	1.863881	-0.598043
S	0.032160	0.361281	-1.472343
C	0.447660	2.717781	1.829057
H	0.373760	2.298581	2.851157
H	-0.317540	3.517081	1.740657
H	1.440160	3.207081	1.740657
C	-0.005940	-2.002019	0.014457
H	1.069960	-1.908119	0.014557
H	0.055460	-2.703119	-0.804743
H	0.039260	-2.519019	0.961557
H	0.461960	2.798581	-1.147143
$end

$rem
JOBTYPE		SP
EXCHANGE	HF
CORRELATION	pRIMP2
BASIS		cc-pvtz
METHOD		rimp2
AUX_BASIS	rimp2-cc-pvtz
SOLVENT_METHOD	PCM
PURECART	11111
SYMMETRY	false
MEM_TOTAL	110000
SCF_CONVERGENCE = 6
THRESH=10
$end

$solvent
dielectric 4.90
$end
--------------------------------------------------------------

             Standard Nuclear Orientation (Angstroms)
    I     Atom           X                Y                Z
 ----------------------------------------------------------------
    1      C      -0.1315400000    -0.5668190000     0.0144570000
    2      C       0.0184600000     0.2836810000     1.1138570000
    3      C       0.2587600000     1.6465810000     0.7911570000
    4      H      -0.0456400000    -0.0795190000     2.1505570000
    5      C       0.2971600000     1.8638810000    -0.5980430000
    6      S       0.0321600000     0.3612810000    -1.4723430000
    7      C       0.4476600000     2.7177810000     1.8290570000
    8      H       0.3737600000     2.2985810000     2.8511570000
    9      H      -0.3175400000     3.5170810000     1.7406570000
   10      H       1.4401600000     3.2070810000     1.7406570000
   11      C      -0.0059400000    -2.0020190000     0.0144570000
   12      H       1.0699600000    -1.9081190000     0.0145570000
   13      H       0.0554600000    -2.7031190000    -0.8047430000
   14      H       0.0392600000    -2.5190190000     0.9615570000
   15      H       0.4619600000     2.7985810000    -1.1471430000
 ----------------------------------------------------------------

   10    -629.4224540125      7.06e-07  Convergence criterion met
 Total energy in the final basis set =     -629.4224540125
        RIMP2         total energy =      -630.5982186481 a.u.

                    Orbital Energies (a.u.)
 --------------------------------------------------------------

 Alpha MOs
 -- Occupied --
-91.9775 -11.2862 -11.2491 -11.2473 -11.2266 -11.2234 -11.2230  -8.9774
 -6.6584  -6.6579  -6.6573  -1.1614  -1.0567  -0.9973  -0.9413  -0.8825
 -0.7441  -0.7191  -0.6476  -0.5894  -0.5775  -0.5690  -0.5524  -0.5459
 -0.5073  -0.4930  -0.4661  -0.4565  -0.3387  -0.2881

          Ground-State Mulliken Net Atomic Charges

     Atom                 Charge (a.u.)
  ----------------------------------------
      1 C                     0.065165
      2 C                    -0.319625
      3 C                     0.057620
      4 H                     0.175636
      5 C                    -0.282717
      6 S                    -0.001157
      7 C                    -0.272466
      8 H                     0.101317
      9 H                     0.107427
     10 H                     0.107268
     11 C                    -0.378977
     12 H                     0.149460
     13 H                     0.160313
     14 H                     0.138335
     15 H                     0.192401
  ----------------------------------------
  Sum of atomic charges =     0.000000

                    Cartesian Multipole Moments
 -----------------------------------------------------------------
    Charge (ESU x 10^10)
                -0.0000
    Dipole Moment (Debye)
         X       1.0783      Y      -0.6846      Z       1.4217
       Tot       1.9112
    Quadrupole Moments (Debye-Ang)
        XX     -54.1419     XY      -0.2966     YY     -42.2936
        XZ       0.0939     YZ       0.4630     ZZ     -48.6124

 Total job time:  158.17s(wall), 155.73s(cpu)
        *  Thank you very much for using Q-Chem.  Have a nice day.  *
