 Q-Chem 5.4, Q-Chem, Inc., Pleasanton, CA (2021)
 Q-Chem 5.4.0 for Intel X86 EM64T Linux

User input:
--------------------------------------------------------------
$molecule
0 1
C	-0.340297	-0.485421	0.019787
C	0.091503	0.262479	1.119187
C	0.783503	1.460979	0.796487
H	-0.092897	-0.056921	2.155887
C	0.893803	1.652079	-0.592713
S	0.130903	0.330679	-1.467013
C	1.327403	2.402979	1.834387
H	1.114603	2.034379	2.856487
H	0.881703	3.415779	1.745987
H	2.427403	2.523379	1.745987
C	-0.340297	-1.926121	0.019787
H	0.029203	-1.925821	-0.995013
H	0.429503	-2.629921	0.299987
H	-1.230297	-2.445021	-0.304113
H	1.368503	2.474079	-1.141813
$end

$rem
JOBTYPE		SP
EXCHANGE	HF
CORRELATION	pRIMP2
BASIS		cc-pvtz
METHOD		rimp2
AUX_BASIS	rimp2-cc-pvtz
SOLVENT_METHOD	PCM
PURECART	11111
SYMMETRY	false
MEM_TOTAL	110000
SCF_CONVERGENCE = 6
THRESH=10
$end

$solvent
dielectric 4.90
$end
--------------------------------------------------------------

             Standard Nuclear Orientation (Angstroms)
    I     Atom           X                Y                Z
 ----------------------------------------------------------------
    1      C      -0.3402970000    -0.4854210000     0.0197870000
    2      C       0.0915030000     0.2624790000     1.1191870000
    3      C       0.7835030000     1.4609790000     0.7964870000
    4      H      -0.0928970000    -0.0569210000     2.1558870000
    5      C       0.8938030000     1.6520790000    -0.5927130000
    6      S       0.1309030000     0.3306790000    -1.4670130000
    7      C       1.3274030000     2.4029790000     1.8343870000
    8      H       1.1146030000     2.0343790000     2.8564870000
    9      H       0.8817030000     3.4157790000     1.7459870000
   10      H       2.4274030000     2.5233790000     1.7459870000
   11      C      -0.3402970000    -1.9261210000     0.0197870000
   12      H       0.0292030000    -1.9258210000    -0.9950130000
   13      H       0.4295030000    -2.6299210000     0.2999870000
   14      H      -1.2302970000    -2.4450210000    -0.3041130000
   15      H       1.3685030000     2.4740790000    -1.1418130000
 ----------------------------------------------------------------

   10    -629.4000811256      5.65e-07  Convergence criterion met
 Total energy in the final basis set =     -629.4000811256
        RIMP2         total energy =      -630.5817806248 a.u.

                    Orbital Energies (a.u.)
 --------------------------------------------------------------

 Alpha MOs
 -- Occupied --
-91.9770 -11.2682 -11.2629 -11.2470 -11.2347 -11.2272 -11.2124  -8.9775
 -6.6584  -6.6577  -6.6572  -1.1639  -1.0554  -0.9943  -0.9455  -0.8804
 -0.7494  -0.7205  -0.6471  -0.5880  -0.5778  -0.5665  -0.5522  -0.5476
 -0.5128  -0.4785  -0.4638  -0.4427  -0.3375  -0.3013

          Ground-State Mulliken Net Atomic Charges

     Atom                 Charge (a.u.)
  ----------------------------------------
      1 C                     0.016085
      2 C                    -0.259038
      3 C                     0.044428
      4 H                     0.179576
      5 C                    -0.245594
      6 S                    -0.005075
      7 C                    -0.271345
      8 H                     0.101873
      9 H                     0.107205
     10 H                     0.106045
     11 C                    -0.366554
     12 H                     0.123328
     13 H                     0.153654
     14 H                     0.119951
     15 H                     0.195462
  ----------------------------------------
  Sum of atomic charges =     0.000000

                    Cartesian Multipole Moments
 -----------------------------------------------------------------
    Charge (ESU x 10^10)
                -0.0000
    Dipole Moment (Debye)
         X       1.1310      Y       0.1190      Z       0.9552
       Tot       1.4851
    Quadrupole Moments (Debye-Ang)
        XX     -51.9198     XY       3.2263     YY     -44.8514
        XZ       0.3567     YZ       1.3057     ZZ     -48.5846

 Total job time:  159.42s(wall), 158.19s(cpu)
        *  Thank you very much for using Q-Chem.  Have a nice day.  *
