 Q-Chem 5.4, Q-Chem, Inc., Pleasanton, CA (2021)
 Q-Chem 5.4.0 for Intel X86 EM64T Linux

User input:
--------------------------------------------------------------
$molecule
0 1
C	-0.229812	-0.535395	0.010669
C	0.065588	0.276105	1.110069
C	0.538888	1.576505	0.787369
H	-0.060512	-0.070395	2.146769
C	0.614388	1.783905	-0.601831
S	0.092488	0.350205	-1.476131
C	0.910988	2.598705	1.825269
H	0.765388	2.198705	2.847369
H	0.296188	3.518705	1.736869
H	1.973388	2.908305	1.736869
C	-0.229812	-1.976095	0.010669
H	-0.599312	-1.976295	1.025469
H	0.539988	-2.679895	0.290869
H	-1.119812	-2.494995	-0.313231
H	0.939088	2.675905	-1.150931
$end

$rem
JOBTYPE		SP
EXCHANGE	HF
CORRELATION	pRIMP2
BASIS		cc-pvtz
METHOD		rimp2
AUX_BASIS	rimp2-cc-pvtz
SOLVENT_METHOD	PCM
PURECART	11111
SYMMETRY	false
MEM_TOTAL	110000
SCF_CONVERGENCE = 6
THRESH=10
$end

$solvent
dielectric 4.90
$end
--------------------------------------------------------------

             Standard Nuclear Orientation (Angstroms)
    I     Atom           X                Y                Z
 ----------------------------------------------------------------
    1      C      -0.2298120000    -0.5353950000     0.0106690000
    2      C       0.0655880000     0.2761050000     1.1100690000
    3      C       0.5388880000     1.5765050000     0.7873690000
    4      H      -0.0605120000    -0.0703950000     2.1467690000
    5      C       0.6143880000     1.7839050000    -0.6018310000
    6      S       0.0924880000     0.3502050000    -1.4761310000
    7      C       0.9109880000     2.5987050000     1.8252690000
    8      H       0.7653880000     2.1987050000     2.8473690000
    9      H       0.2961880000     3.5187050000     1.7368690000
   10      H       1.9733880000     2.9083050000     1.7368690000
   11      C      -0.2298120000    -1.9760950000     0.0106690000
   12      H      -0.5993120000    -1.9762950000     1.0254690000
   13      H       0.5399880000    -2.6798950000     0.2908690000
   14      H      -1.1198120000    -2.4949950000    -0.3132310000
   15      H       0.9390880000     2.6759050000    -1.1509310000
 ----------------------------------------------------------------

   10    -629.4166616793      5.03e-07  Convergence criterion met
 Total energy in the final basis set =     -629.4166616793
        RIMP2         total energy =      -630.5964481406 a.u.

                    Orbital Energies (a.u.)
 --------------------------------------------------------------

 Alpha MOs
 -- Occupied --
-91.9744 -11.2737 -11.2600 -11.2473 -11.2360 -11.2276 -11.2152  -8.9746
 -6.6556  -6.6550  -6.6545  -1.1618  -1.0537  -0.9994  -0.9396  -0.8844
 -0.7428  -0.7246  -0.6486  -0.5888  -0.5783  -0.5668  -0.5587  -0.5421
 -0.5123  -0.4839  -0.4661  -0.4366  -0.3379  -0.3029

          Ground-State Mulliken Net Atomic Charges

     Atom                 Charge (a.u.)
  ----------------------------------------
      1 C                     0.033819
      2 C                    -0.266477
      3 C                     0.036493
      4 H                     0.178387
      5 C                    -0.247980
      6 S                    -0.005332
      7 C                    -0.271897
      8 H                     0.101276
      9 H                     0.106930
     10 H                     0.107110
     11 C                    -0.359896
     12 H                     0.117508
     13 H                     0.145937
     14 H                     0.130679
     15 H                     0.193444
  ----------------------------------------
  Sum of atomic charges =     0.000000

                    Cartesian Multipole Moments
 -----------------------------------------------------------------
    Charge (ESU x 10^10)
                -0.0000
    Dipole Moment (Debye)
         X       0.3285      Y       0.0145      Z       2.1368
       Tot       2.1619
    Quadrupole Moments (Debye-Ang)
        XX     -52.7029     XY       3.2683     YY     -43.3448
        XZ       0.1349     YZ      -1.0827     ZZ     -48.8405

 Total job time:  158.05s(wall), 156.26s(cpu)
        *  Thank you very much for using Q-Chem.  Have a nice day.  *
