 Q-Chem 5.4, Q-Chem, Inc., Pleasanton, CA (2021)
 Q-Chem 5.4.0 for Intel X86 EM64T Linux

User input:
--------------------------------------------------------------
$molecule
0 1
C	0.000259	-0.576312	0.010154
C	0.000259	0.287288	1.109554
C	0.000359	1.671188	0.786854
H	0.000259	-0.081512	2.146254
C	0.000359	1.891888	-0.602346
S	0.000259	0.366088	-1.476646
C	0.000359	2.758988	1.824754
H	0.000359	2.333288	2.846854
H	-0.892041	3.413288	1.736354
H	0.892759	3.413188	1.736354
C	0.000259	-2.017012	0.010154
H	-0.187441	-2.016712	1.073754
H	-0.806441	-2.720812	-0.132146
H	0.932959	-2.535912	0.174654
H	0.000359	2.841088	-1.151446
$end

$rem
JOBTYPE		SP
EXCHANGE	HF
CORRELATION	pRIMP2
BASIS		cc-pvtz
METHOD		rimp2
AUX_BASIS	rimp2-cc-pvtz
SOLVENT_METHOD	PCM
PURECART	11111
SYMMETRY	false
MEM_TOTAL	110000
SCF_CONVERGENCE = 6
THRESH=10
$end

$solvent
dielectric 4.90
$end
--------------------------------------------------------------

   10    -629.4249853426      4.97e-07  Convergence criterion met
 Total energy in the final basis set =     -629.4249853426
        RIMP2         total energy =      -630.6028201144 a.u.
 Total job time:  156.44s(wall), 154.99s(cpu)
        *  Thank you very much for using Q-Chem.  Have a nice day.  *
 Q-Chem 5.4, Q-Chem, Inc., Pleasanton, CA (2021)
 Q-Chem 5.4.0 for Intel X86 EM64T Linux

User input:
--------------------------------------------------------------
$molecule
0 1
C	0.000259	-0.576312	0.010154
C	0.000259	0.287288	1.109554
C	0.000359	1.671188	0.786854
H	0.000259	-0.081512	2.146254
C	0.000359	1.891888	-0.602346
S	0.000259	0.366088	-1.476646
C	0.000359	2.758988	1.824754
H	0.000359	2.333288	2.846854
H	-0.892041	3.413288	1.736354
H	0.892759	3.413188	1.736354
C	0.000259	-2.017012	0.010154
H	-0.187441	-2.016712	1.073754
H	-0.806441	-2.720812	-0.132146
H	0.932959	-2.535912	0.174654
H	0.000359	2.841088	-1.151446
$end

$rem
JOBTYPE		SP
EXCHANGE	HF
CORRELATION	pRIMP2
BASIS		cc-pvtz
METHOD		rimp2
AUX_BASIS	rimp2-cc-pvtz
SOLVENT_METHOD	PCM
PURECART	11111
SYMMETRY	false
MEM_TOTAL	110000
SCF_CONVERGENCE = 6
THRESH=10
$end

$solvent
dielectric 4.90
$end
--------------------------------------------------------------

             Standard Nuclear Orientation (Angstroms)
    I     Atom           X                Y                Z
 ----------------------------------------------------------------
    1      C       0.0002590000    -0.5763120000     0.0101540000
    2      C       0.0002590000     0.2872880000     1.1095540000
    3      C       0.0003590000     1.6711880000     0.7868540000
    4      H       0.0002590000    -0.0815120000     2.1462540000
    5      C       0.0003590000     1.8918880000    -0.6023460000
    6      S       0.0002590000     0.3660880000    -1.4766460000
    7      C       0.0003590000     2.7589880000     1.8247540000
    8      H       0.0003590000     2.3332880000     2.8468540000
    9      H      -0.8920410000     3.4132880000     1.7363540000
   10      H       0.8927590000     3.4131880000     1.7363540000
   11      C       0.0002590000    -2.0170120000     0.0101540000
   12      H      -0.1874410000    -2.0167120000     1.0737540000
   13      H      -0.8064410000    -2.7208120000    -0.1321460000
   14      H       0.9329590000    -2.5359120000     0.1746540000
   15      H       0.0003590000     2.8410880000    -1.1514460000
 ----------------------------------------------------------------

   10    -629.4249853426      4.97e-07  Convergence criterion met
 Total energy in the final basis set =     -629.4249853426
        RIMP2         total energy =      -630.6028201144 a.u.

                    Orbital Energies (a.u.)
 --------------------------------------------------------------

 Alpha MOs
 -- Occupied --
-91.9749 -11.2781 -11.2569 -11.2470 -11.2340 -11.2274 -11.2166  -8.9751
 -6.6560  -6.6554  -6.6549  -1.1610  -1.0540  -0.9997  -0.9397  -0.8845
 -0.7422  -0.7240  -0.6488  -0.5919  -0.5777  -0.5667  -0.5595  -0.5420
 -0.5103  -0.4852  -0.4679  -0.4378  -0.3379  -0.3037

          Ground-State Mulliken Net Atomic Charges

     Atom                 Charge (a.u.)
  ----------------------------------------
      1 C                     0.068109
      2 C                    -0.270505
      3 C                     0.030242
      4 H                     0.177236
      5 C                    -0.251496
      6 S                    -0.008044
      7 C                    -0.273861
      8 H                     0.101118
      9 H                     0.107187
     10 H                     0.107294
     11 C                    -0.374642
     12 H                     0.121110
     13 H                     0.147918
     14 H                     0.125173
     15 H                     0.193161
  ----------------------------------------
  Sum of atomic charges =     0.000000

                    Cartesian Multipole Moments
 -----------------------------------------------------------------
    Charge (ESU x 10^10)
                -0.0000
    Dipole Moment (Debye)
         X      -0.0967      Y      -0.0970      Z       2.1426
       Tot       2.1470
    Quadrupole Moments (Debye-Ang)
        XX     -53.7056     XY       0.3839     YY     -42.1430
        XZ       0.1075     YZ      -1.0487     ZZ     -48.9642

 Total job time:  158.12s(wall), 156.80s(cpu)
        *  Thank you very much for using Q-Chem.  Have a nice day.  *
