 Q-Chem 5.4, Q-Chem, Inc., Pleasanton, CA (2021)
 Q-Chem 5.4.0 for Intel X86 EM64T Linux

User input:
--------------------------------------------------------------
$molecule
0 1
C	-0.180426	-0.553191	0.015606
C	0.043074	0.281009	1.115006
C	0.401274	1.617709	0.792306
H	-0.052326	-0.075291	2.151706
C	0.458474	1.830809	-0.596894
S	0.063474	0.357109	-1.471194
C	0.682874	2.668409	1.830206
H	0.572674	2.257309	2.852306
H	-0.009726	3.531409	1.741806
H	1.714174	3.069409	1.741806
C	-0.180426	-1.993891	0.015606
H	0.899574	-1.993591	0.015706
H	-0.180526	-2.697691	0.834806
H	-0.180426	-2.512791	-0.931494
H	0.704174	2.747709	-1.145994
$end

$rem
JOBTYPE		SP
EXCHANGE	HF
CORRELATION	pRIMP2
BASIS		cc-pvtz
METHOD		rimp2
AUX_BASIS	rimp2-cc-pvtz
SOLVENT_METHOD	PCM
PURECART	11111
SYMMETRY	false
MEM_TOTAL	110000
SCF_CONVERGENCE = 6
THRESH=10
$end

$solvent
dielectric 4.90
$end
--------------------------------------------------------------

             Standard Nuclear Orientation (Angstroms)
    I     Atom           X                Y                Z
 ----------------------------------------------------------------
    1      C      -0.1804260000    -0.5531910000     0.0156060000
    2      C       0.0430740000     0.2810090000     1.1150060000
    3      C       0.4012740000     1.6177090000     0.7923060000
    4      H      -0.0523260000    -0.0752910000     2.1517060000
    5      C       0.4584740000     1.8308090000    -0.5968940000
    6      S       0.0634740000     0.3571090000    -1.4711940000
    7      C       0.6828740000     2.6684090000     1.8302060000
    8      H       0.5726740000     2.2573090000     2.8523060000
    9      H      -0.0097260000     3.5314090000     1.7418060000
   10      H       1.7141740000     3.0694090000     1.7418060000
   11      C      -0.1804260000    -1.9938910000     0.0156060000
   12      H       0.8995740000    -1.9935910000     0.0157060000
   13      H      -0.1805260000    -2.6976910000     0.8348060000
   14      H      -0.1804260000    -2.5127910000    -0.9314940000
   15      H       0.7041740000     2.7477090000    -1.1459940000
 ----------------------------------------------------------------

   10    -629.4217645741      7.16e-07  Convergence criterion met
 Total energy in the final basis set =     -629.4217645741
        RIMP2         total energy =      -630.5973875392 a.u.

                    Orbital Energies (a.u.)
 --------------------------------------------------------------

 Alpha MOs
 -- Occupied --
-91.9790 -11.2855 -11.2492 -11.2471 -11.2264 -11.2228 -11.2220  -8.9788
 -6.6598  -6.6592  -6.6586  -1.1614  -1.0567  -0.9969  -0.9419  -0.8822
 -0.7442  -0.7189  -0.6496  -0.5865  -0.5766  -0.5664  -0.5540  -0.5466
 -0.5064  -0.4946  -0.4663  -0.4575  -0.3388  -0.2880

          Ground-State Mulliken Net Atomic Charges

     Atom                 Charge (a.u.)
  ----------------------------------------
      1 C                     0.062393
      2 C                    -0.319251
      3 C                     0.059197
      4 H                     0.174552
      5 C                    -0.284532
      6 S                     0.003496
      7 C                    -0.272821
      8 H                     0.101446
      9 H                     0.107373
     10 H                     0.107144
     11 C                    -0.378610
     12 H                     0.149055
     13 H                     0.162538
     14 H                     0.135081
     15 H                     0.192938
  ----------------------------------------
  Sum of atomic charges =     0.000000

                    Cartesian Multipole Moments
 -----------------------------------------------------------------
    Charge (ESU x 10^10)
                -0.0000
    Dipole Moment (Debye)
         X       1.0187      Y      -0.7542      Z       1.3909
       Tot       1.8818
    Quadrupole Moments (Debye-Ang)
        XX     -54.1057     XY       0.7358     YY     -42.3502
        XZ       0.1443     YZ       0.1465     ZZ     -48.5783

 Total job time:  156.15s(wall), 155.32s(cpu)
        *  Thank you very much for using Q-Chem.  Have a nice day.  *
