 Q-Chem 5.4, Q-Chem, Inc., Pleasanton, CA (2021)
 Q-Chem 5.4.0 for Intel X86 EM64T Linux

User input:
--------------------------------------------------------------
$molecule
0 1
C	-0.236374	-0.535397	0.017231
C	0.059026	0.276103	1.116631
C	0.532326	1.576503	0.793931
H	-0.067074	-0.070397	2.153331
C	0.607826	1.783903	-0.595269
S	0.085926	0.350203	-1.469569
C	0.904426	2.598703	1.831831
H	0.758826	2.198703	2.853931
H	0.289626	3.518703	1.743431
H	1.966826	2.908303	1.743431
C	-0.236374	-1.976097	0.017231
H	0.778526	-1.975797	-0.352069
H	0.043726	-2.679897	0.787031
H	-0.560274	-2.494997	-0.872769
H	0.932526	2.675903	-1.144369
$end

$rem
JOBTYPE		SP
EXCHANGE	HF
CORRELATION	pRIMP2
BASIS		cc-pvtz
METHOD		rimp2
AUX_BASIS	rimp2-cc-pvtz
SOLVENT_METHOD	PCM
PURECART	11111
SYMMETRY	false
MEM_TOTAL	110000
SCF_CONVERGENCE = 6
THRESH=10
$end

$solvent
dielectric 4.90
$end
--------------------------------------------------------------

   10    -629.4180641778      7.18e-07  Convergence criterion met
 Total energy in the final basis set =     -629.4180641778
        RIMP2         total energy =      -630.5945108939 a.u.
 Total job time:  159.62s(wall), 157.26s(cpu)
        *  Thank you very much for using Q-Chem.  Have a nice day.  *
 Q-Chem 5.4, Q-Chem, Inc., Pleasanton, CA (2021)
 Q-Chem 5.4.0 for Intel X86 EM64T Linux

User input:
--------------------------------------------------------------
$molecule
0 1
C	-0.236374	-0.535397	0.017231
C	0.059026	0.276103	1.116631
C	0.532326	1.576503	0.793931
H	-0.067074	-0.070397	2.153331
C	0.607826	1.783903	-0.595269
S	0.085926	0.350203	-1.469569
C	0.904426	2.598703	1.831831
H	0.758826	2.198703	2.853931
H	0.289626	3.518703	1.743431
H	1.966826	2.908303	1.743431
C	-0.236374	-1.976097	0.017231
H	0.778526	-1.975797	-0.352069
H	0.043726	-2.679897	0.787031
H	-0.560274	-2.494997	-0.872769
H	0.932526	2.675903	-1.144369
$end

$rem
JOBTYPE		SP
EXCHANGE	HF
CORRELATION	pRIMP2
BASIS		cc-pvtz
METHOD		rimp2
AUX_BASIS	rimp2-cc-pvtz
SOLVENT_METHOD	PCM
PURECART	11111
SYMMETRY	false
MEM_TOTAL	110000
SCF_CONVERGENCE = 6
THRESH=10
$end

$solvent
dielectric 4.90
$end
--------------------------------------------------------------

             Standard Nuclear Orientation (Angstroms)
    I     Atom           X                Y                Z
 ----------------------------------------------------------------
    1      C      -0.2363740000    -0.5353970000     0.0172310000
    2      C       0.0590260000     0.2761030000     1.1166310000
    3      C       0.5323260000     1.5765030000     0.7939310000
    4      H      -0.0670740000    -0.0703970000     2.1533310000
    5      C       0.6078260000     1.7839030000    -0.5952690000
    6      S       0.0859260000     0.3502030000    -1.4695690000
    7      C       0.9044260000     2.5987030000     1.8318310000
    8      H       0.7588260000     2.1987030000     2.8539310000
    9      H       0.2896260000     3.5187030000     1.7434310000
   10      H       1.9668260000     2.9083030000     1.7434310000
   11      C      -0.2363740000    -1.9760970000     0.0172310000
   12      H       0.7785260000    -1.9757970000    -0.3520690000
   13      H       0.0437260000    -2.6798970000     0.7870310000
   14      H      -0.5602740000    -2.4949970000    -0.8727690000
   15      H       0.9325260000     2.6759030000    -1.1443690000
 ----------------------------------------------------------------

   10    -629.4180641778      7.18e-07  Convergence criterion met
 Total energy in the final basis set =     -629.4180641778
        RIMP2         total energy =      -630.5945108939 a.u.

                    Orbital Energies (a.u.)
 --------------------------------------------------------------

 Alpha MOs
 -- Occupied --
-91.9774 -11.2828 -11.2523 -11.2471 -11.2266 -11.2248 -11.2214  -8.9775
 -6.6586  -6.6580  -6.6573  -1.1623  -1.0567  -0.9959  -0.9431  -0.8816
 -0.7455  -0.7190  -0.6492  -0.5866  -0.5784  -0.5649  -0.5527  -0.5476
 -0.5075  -0.4939  -0.4647  -0.4554  -0.3398  -0.2895

          Ground-State Mulliken Net Atomic Charges

     Atom                 Charge (a.u.)
  ----------------------------------------
      1 C                     0.062683
      2 C                    -0.329293
      3 C                     0.064536
      4 H                     0.177082
      5 C                    -0.276564
      6 S                    -0.001875
      7 C                    -0.271694
      8 H                     0.101528
      9 H                     0.107564
     10 H                     0.107051
     11 C                    -0.371679
     12 H                     0.143352
     13 H                     0.161605
     14 H                     0.132655
     15 H                     0.193050
  ----------------------------------------
  Sum of atomic charges =     0.000000

                    Cartesian Multipole Moments
 -----------------------------------------------------------------
    Charge (ESU x 10^10)
                -0.0000
    Dipole Moment (Debye)
         X       1.0951      Y      -0.5991      Z       1.2095
       Tot       1.7381
    Quadrupole Moments (Debye-Ang)
        XX     -53.6608     XY       1.4816     YY     -42.8801
        XZ       0.3426     YZ       0.6093     ZZ     -48.6274

 Total job time:  156.48s(wall), 155.10s(cpu)
        *  Thank you very much for using Q-Chem.  Have a nice day.  *
