 Q-Chem 5.4, Q-Chem, Inc., Pleasanton, CA (2021)
 Q-Chem 5.4.0 for Intel X86 EM64T Linux

User input:
--------------------------------------------------------------
$molecule
0 1
C	-0.515280	-0.333974	0.012833
C	0.146320	0.221126	1.112233
C	1.206420	1.110626	0.789533
H	-0.136180	-0.015974	2.148933
C	1.375520	1.252426	-0.599667
S	0.206620	0.271726	-1.473967
C	2.039720	1.809826	1.827433
H	1.713620	1.536226	2.849533
H	1.967320	2.914026	1.739033
H	3.114520	1.546726	1.739033
C	-0.515280	-1.774674	0.012833
H	-1.530180	-1.774374	0.382133
H	-0.795380	-2.478474	-0.756967
H	-0.191380	-2.293574	0.902833
H	2.102620	1.862626	-1.148767
$end

$rem
JOBTYPE		SP
EXCHANGE	HF
CORRELATION	pRIMP2
BASIS		cc-pvtz
METHOD		rimp2
AUX_BASIS	rimp2-cc-pvtz
SOLVENT_METHOD	PCM
PURECART	11111
SYMMETRY	false
MEM_TOTAL	110000
SCF_CONVERGENCE = 6
THRESH=10
$end

$solvent
dielectric 4.90
$end
--------------------------------------------------------------

             Standard Nuclear Orientation (Angstroms)
    I     Atom           X                Y                Z
 ----------------------------------------------------------------
    1      C      -0.5152800000    -0.3339740000     0.0128330000
    2      C       0.1463200000     0.2211260000     1.1122330000
    3      C       1.2064200000     1.1106260000     0.7895330000
    4      H      -0.1361800000    -0.0159740000     2.1489330000
    5      C       1.3755200000     1.2524260000    -0.5996670000
    6      S       0.2066200000     0.2717260000    -1.4739670000
    7      C       2.0397200000     1.8098260000     1.8274330000
    8      H       1.7136200000     1.5362260000     2.8495330000
    9      H       1.9673200000     2.9140260000     1.7390330000
   10      H       3.1145200000     1.5467260000     1.7390330000
   11      C      -0.5152800000    -1.7746740000     0.0128330000
   12      H      -1.5301800000    -1.7743740000     0.3821330000
   13      H      -0.7953800000    -2.4784740000    -0.7569670000
   14      H      -0.1913800000    -2.2935740000     0.9028330000
   15      H       2.1026200000     1.8626260000    -1.1487670000
 ----------------------------------------------------------------

   11    -629.3634416104      4.23e-07  Convergence criterion met
 Total energy in the final basis set =     -629.3634416104
        RIMP2         total energy =      -630.5533491645 a.u.

                    Orbital Energies (a.u.)
 --------------------------------------------------------------

 Alpha MOs
 -- Occupied --
-91.9721 -11.2693 -11.2573 -11.2486 -11.2428 -11.2280 -11.2084  -8.9729
 -6.6538  -6.6529  -6.6526  -1.1670  -1.0541  -0.9975  -0.9384  -0.8828
 -0.7463  -0.7265  -0.6421  -0.5855  -0.5805  -0.5662  -0.5539  -0.5429
 -0.5159  -0.4929  -0.4588  -0.4276  -0.3360  -0.2863

          Ground-State Mulliken Net Atomic Charges

     Atom                 Charge (a.u.)
  ----------------------------------------
      1 C                    -0.037578
      2 C                    -0.206711
      3 C                     0.015578
      4 H                     0.180046
      5 C                    -0.217165
      6 S                     0.007569
      7 C                    -0.268984
      8 H                     0.101509
      9 H                     0.106936
     10 H                     0.105511
     11 C                    -0.394643
     12 H                     0.126839
     13 H                     0.153100
     14 H                     0.134911
     15 H                     0.193084
  ----------------------------------------
  Sum of atomic charges =     0.000000

                    Cartesian Multipole Moments
 -----------------------------------------------------------------
    Charge (ESU x 10^10)
                -0.0000
    Dipole Moment (Debye)
         X       1.0562      Y      -0.0728      Z       1.8742
       Tot       2.1525
    Quadrupole Moments (Debye-Ang)
        XX     -49.0414     XY       5.7727     YY     -48.2124
        XZ       0.1244     YZ      -0.0942     ZZ     -48.0003

 Total job time:  170.36s(wall), 168.89s(cpu)
        *  Thank you very much for using Q-Chem.  Have a nice day.  *
