 Q-Chem 5.4, Q-Chem, Inc., Pleasanton, CA (2021)
 Q-Chem 5.4.0 for Intel X86 EM64T Linux

User input:
--------------------------------------------------------------
$molecule
0 1
C	-0.344028	-0.485421	0.015606
C	0.087772	0.262479	1.115006
C	0.779772	1.460979	0.792306
H	-0.096628	-0.056921	2.151706
C	0.890072	1.652079	-0.596894
S	0.127172	0.330679	-1.471194
C	1.323672	2.402979	1.830206
H	1.110872	2.034379	2.852306
H	0.877972	3.415779	1.741806
H	2.423672	2.523379	1.741806
C	-0.344028	-1.926121	0.015606
H	0.735972	-1.925821	0.015706
H	-0.344128	-2.629921	0.834806
H	-0.344028	-2.445021	-0.931494
H	1.364772	2.474079	-1.145994
$end

$rem
JOBTYPE		SP
EXCHANGE	HF
CORRELATION	pRIMP2
BASIS		cc-pvtz
METHOD		rimp2
AUX_BASIS	rimp2-cc-pvtz
SOLVENT_METHOD	PCM
PURECART	11111
SYMMETRY	false
MEM_TOTAL	110000
SCF_CONVERGENCE = 6
THRESH=10
$end

$solvent
dielectric 4.90
$end
--------------------------------------------------------------

   10    -629.4085046110      6.62e-07  Convergence criterion met
 Total energy in the final basis set =     -629.4085046110
        RIMP2         total energy =      -630.5875120418 a.u.
 Total job time:  158.36s(wall), 157.69s(cpu)
        *  Thank you very much for using Q-Chem.  Have a nice day.  *
 Q-Chem 5.4, Q-Chem, Inc., Pleasanton, CA (2021)
 Q-Chem 5.4.0 for Intel X86 EM64T Linux

User input:
--------------------------------------------------------------
$molecule
0 1
C	-0.344028	-0.485421	0.015606
C	0.087772	0.262479	1.115006
C	0.779772	1.460979	0.792306
H	-0.096628	-0.056921	2.151706
C	0.890072	1.652079	-0.596894
S	0.127172	0.330679	-1.471194
C	1.323672	2.402979	1.830206
H	1.110872	2.034379	2.852306
H	0.877972	3.415779	1.741806
H	2.423672	2.523379	1.741806
C	-0.344028	-1.926121	0.015606
H	0.735972	-1.925821	0.015706
H	-0.344128	-2.629921	0.834806
H	-0.344028	-2.445021	-0.931494
H	1.364772	2.474079	-1.145994
$end

$rem
JOBTYPE		SP
EXCHANGE	HF
CORRELATION	pRIMP2
BASIS		cc-pvtz
METHOD		rimp2
AUX_BASIS	rimp2-cc-pvtz
SOLVENT_METHOD	PCM
PURECART	11111
SYMMETRY	false
MEM_TOTAL	110000
SCF_CONVERGENCE = 6
THRESH=10
$end

$solvent
dielectric 4.90
$end
--------------------------------------------------------------

             Standard Nuclear Orientation (Angstroms)
    I     Atom           X                Y                Z
 ----------------------------------------------------------------
    1      C      -0.3440280000    -0.4854210000     0.0156060000
    2      C       0.0877720000     0.2624790000     1.1150060000
    3      C       0.7797720000     1.4609790000     0.7923060000
    4      H      -0.0966280000    -0.0569210000     2.1517060000
    5      C       0.8900720000     1.6520790000    -0.5968940000
    6      S       0.1271720000     0.3306790000    -1.4711940000
    7      C       1.3236720000     2.4029790000     1.8302060000
    8      H       1.1108720000     2.0343790000     2.8523060000
    9      H       0.8779720000     3.4157790000     1.7418060000
   10      H       2.4236720000     2.5233790000     1.7418060000
   11      C      -0.3440280000    -1.9261210000     0.0156060000
   12      H       0.7359720000    -1.9258210000     0.0157060000
   13      H      -0.3441280000    -2.6299210000     0.8348060000
   14      H      -0.3440280000    -2.4450210000    -0.9314940000
   15      H       1.3647720000     2.4740790000    -1.1459940000
 ----------------------------------------------------------------

   10    -629.4085046110      6.62e-07  Convergence criterion met
 Total energy in the final basis set =     -629.4085046110
        RIMP2         total energy =      -630.5875120418 a.u.

                    Orbital Energies (a.u.)
 --------------------------------------------------------------

 Alpha MOs
 -- Occupied --
-91.9781 -11.2812 -11.2537 -11.2479 -11.2269 -11.2250 -11.2211  -8.9781
 -6.6591  -6.6585  -6.6579  -1.1642  -1.0569  -0.9965  -0.9409  -0.8816
 -0.7453  -0.7205  -0.6485  -0.5861  -0.5789  -0.5657  -0.5538  -0.5464
 -0.5068  -0.4941  -0.4626  -0.4574  -0.3389  -0.2874

          Ground-State Mulliken Net Atomic Charges

     Atom                 Charge (a.u.)
  ----------------------------------------
      1 C                     0.044264
      2 C                    -0.304756
      3 C                     0.058069
      4 H                     0.174468
      5 C                    -0.275708
      6 S                     0.003161
      7 C                    -0.270820
      8 H                     0.101718
      9 H                     0.107742
     10 H                     0.106359
     11 C                    -0.373204
     12 H                     0.148771
     13 H                     0.155744
     14 H                     0.130882
     15 H                     0.193310
  ----------------------------------------
  Sum of atomic charges =     0.000000

                    Cartesian Multipole Moments
 -----------------------------------------------------------------
    Charge (ESU x 10^10)
                -0.0000
    Dipole Moment (Debye)
         X       1.3553      Y      -0.6026      Z       1.4494
       Tot       2.0738
    Quadrupole Moments (Debye-Ang)
        XX     -52.8457     XY       2.5797     YY     -44.2661
        XZ       0.1806     YZ       0.0174     ZZ     -48.4753

 Total job time:  157.94s(wall), 156.20s(cpu)
        *  Thank you very much for using Q-Chem.  Have a nice day.  *
