 Q-Chem 5.4, Q-Chem, Inc., Pleasanton, CA (2021)
 Q-Chem 5.4.0 for Intel X86 EM64T Linux

User input:
--------------------------------------------------------------
$molecule
0 1
C	-0.519366	-0.333974	0.010154
C	0.142234	0.221126	1.109554
C	1.202334	1.110626	0.786854
H	-0.140266	-0.015974	2.146254
C	1.371434	1.252426	-0.602346
S	0.202534	0.271726	-1.476646
C	2.035634	1.809826	1.824754
H	1.709534	1.536226	2.846854
H	1.963234	2.914026	1.736354
H	3.110434	1.546726	1.736354
C	-0.519366	-1.774674	0.010154
H	-0.707066	-1.774374	1.073754
H	-1.326066	-2.478474	-0.132146
H	0.413334	-2.293574	0.174654
H	2.098534	1.862626	-1.151446
$end

$rem
JOBTYPE		SP
EXCHANGE	HF
CORRELATION	pRIMP2
BASIS		cc-pvtz
METHOD		rimp2
AUX_BASIS	rimp2-cc-pvtz
SOLVENT_METHOD	PCM
PURECART	11111
SYMMETRY	false
MEM_TOTAL	110000
SCF_CONVERGENCE = 6
THRESH=10
$end

$solvent
dielectric 4.90
$end
--------------------------------------------------------------

             Standard Nuclear Orientation (Angstroms)
    I     Atom           X                Y                Z
 ----------------------------------------------------------------
    1      C      -0.5193660000    -0.3339740000     0.0101540000
    2      C       0.1422340000     0.2211260000     1.1095540000
    3      C       1.2023340000     1.1106260000     0.7868540000
    4      H      -0.1402660000    -0.0159740000     2.1462540000
    5      C       1.3714340000     1.2524260000    -0.6023460000
    6      S       0.2025340000     0.2717260000    -1.4766460000
    7      C       2.0356340000     1.8098260000     1.8247540000
    8      H       1.7095340000     1.5362260000     2.8468540000
    9      H       1.9632340000     2.9140260000     1.7363540000
   10      H       3.1104340000     1.5467260000     1.7363540000
   11      C      -0.5193660000    -1.7746740000     0.0101540000
   12      H      -0.7070660000    -1.7743740000     1.0737540000
   13      H      -1.3260660000    -2.4784740000    -0.1321460000
   14      H       0.4133340000    -2.2935740000     0.1746540000
   15      H       2.0985340000     1.8626260000    -1.1514460000
 ----------------------------------------------------------------

   10    -629.3754660850      8.22e-07  Convergence criterion met
 Total energy in the final basis set =     -629.3754660850
        RIMP2         total energy =      -630.5634316702 a.u.

                    Orbital Energies (a.u.)
 --------------------------------------------------------------

 Alpha MOs
 -- Occupied --
-91.9724 -11.2750 -11.2556 -11.2491 -11.2475 -11.2290 -11.2100  -8.9732
 -6.6540  -6.6532  -6.6529  -1.1700  -1.0553  -1.0006  -0.9352  -0.8837
 -0.7458  -0.7312  -0.6438  -0.5925  -0.5827  -0.5669  -0.5553  -0.5426
 -0.5169  -0.4745  -0.4634  -0.4259  -0.3354  -0.3058

          Ground-State Mulliken Net Atomic Charges

     Atom                 Charge (a.u.)
  ----------------------------------------
      1 C                    -0.050602
      2 C                    -0.183590
      3 C                     0.009129
      4 H                     0.178510
      5 C                    -0.207935
      6 S                     0.004994
      7 C                    -0.267753
      8 H                     0.101635
      9 H                     0.106947
     10 H                     0.105706
     11 C                    -0.353677
     12 H                     0.104974
     13 H                     0.127912
     14 H                     0.127915
     15 H                     0.195837
  ----------------------------------------
  Sum of atomic charges =     0.000000

                    Cartesian Multipole Moments
 -----------------------------------------------------------------
    Charge (ESU x 10^10)
                -0.0000
    Dipole Moment (Debye)
         X       1.7782      Y       0.2471      Z       2.2591
       Tot       2.8856
    Quadrupole Moments (Debye-Ang)
        XX     -48.9125     XY       4.9430     YY     -48.3098
        XZ      -0.2869     YZ      -0.9748     ZZ     -48.4252

 Total job time:  161.29s(wall), 160.43s(cpu)
        *  Thank you very much for using Q-Chem.  Have a nice day.  *
