 Q-Chem 5.4, Q-Chem, Inc., Pleasanton, CA (2021)
 Q-Chem 5.4.0 for Intel X86 EM64T Linux

User input:
--------------------------------------------------------------
$molecule
0 1
C	-0.340584	-0.485421	0.010354
C	0.091216	0.262479	1.109754
C	0.783216	1.460979	0.787054
H	-0.093184	-0.056921	2.146454
C	0.893516	1.652079	-0.602146
S	0.130616	0.330679	-1.476446
C	1.327116	2.402979	1.824954
H	1.114316	2.034379	2.847054
H	0.881416	3.415779	1.736554
H	2.427116	2.523379	1.736554
C	-0.340584	-1.926121	0.010354
H	-0.153184	-1.925821	1.073954
H	-1.147384	-2.629921	0.152554
H	0.592116	-2.445021	-0.154146
H	1.368216	2.474079	-1.151246
$end

$rem
JOBTYPE		SP
EXCHANGE	HF
CORRELATION	pRIMP2
BASIS		cc-pvtz
METHOD		rimp2
AUX_BASIS	rimp2-cc-pvtz
SOLVENT_METHOD	PCM
PURECART	11111
SYMMETRY	false
MEM_TOTAL	110000
SCF_CONVERGENCE = 6
THRESH=10
$end

$solvent
dielectric 4.90
$end
--------------------------------------------------------------

   10    -629.4060854473      5.05e-07  Convergence criterion met
 Total energy in the final basis set =     -629.4060854473
        RIMP2         total energy =      -630.5879551352 a.u.
 Total job time:  158.70s(wall), 156.88s(cpu)
        *  Thank you very much for using Q-Chem.  Have a nice day.  *
 Q-Chem 5.4, Q-Chem, Inc., Pleasanton, CA (2021)
 Q-Chem 5.4.0 for Intel X86 EM64T Linux

User input:
--------------------------------------------------------------
$molecule
0 1
C	-0.340584	-0.485421	0.010354
C	0.091216	0.262479	1.109754
C	0.783216	1.460979	0.787054
H	-0.093184	-0.056921	2.146454
C	0.893516	1.652079	-0.602146
S	0.130616	0.330679	-1.476446
C	1.327116	2.402979	1.824954
H	1.114316	2.034379	2.847054
H	0.881416	3.415779	1.736554
H	2.427116	2.523379	1.736554
C	-0.340584	-1.926121	0.010354
H	-0.153184	-1.925821	1.073954
H	-1.147384	-2.629921	0.152554
H	0.592116	-2.445021	-0.154146
H	1.368216	2.474079	-1.151246
$end

$rem
JOBTYPE		SP
EXCHANGE	HF
CORRELATION	pRIMP2
BASIS		cc-pvtz
METHOD		rimp2
AUX_BASIS	rimp2-cc-pvtz
SOLVENT_METHOD	PCM
PURECART	11111
SYMMETRY	false
MEM_TOTAL	110000
SCF_CONVERGENCE = 6
THRESH=10
$end

$solvent
dielectric 4.90
$end
--------------------------------------------------------------

             Standard Nuclear Orientation (Angstroms)
    I     Atom           X                Y                Z
 ----------------------------------------------------------------
    1      C      -0.3405840000    -0.4854210000     0.0103540000
    2      C       0.0912160000     0.2624790000     1.1097540000
    3      C       0.7832160000     1.4609790000     0.7870540000
    4      H      -0.0931840000    -0.0569210000     2.1464540000
    5      C       0.8935160000     1.6520790000    -0.6021460000
    6      S       0.1306160000     0.3306790000    -1.4764460000
    7      C       1.3271160000     2.4029790000     1.8249540000
    8      H       1.1143160000     2.0343790000     2.8470540000
    9      H       0.8814160000     3.4157790000     1.7365540000
   10      H       2.4271160000     2.5233790000     1.7365540000
   11      C      -0.3405840000    -1.9261210000     0.0103540000
   12      H      -0.1531840000    -1.9258210000     1.0739540000
   13      H      -1.1473840000    -2.6299210000     0.1525540000
   14      H       0.5921160000    -2.4450210000    -0.1541460000
   15      H       1.3682160000     2.4740790000    -1.1512460000
 ----------------------------------------------------------------

   10    -629.4060854473      5.05e-07  Convergence criterion met
 Total energy in the final basis set =     -629.4060854473
        RIMP2         total energy =      -630.5879551352 a.u.

                    Orbital Energies (a.u.)
 --------------------------------------------------------------

 Alpha MOs
 -- Occupied --
-91.9746 -11.2711 -11.2621 -11.2473 -11.2374 -11.2278 -11.2133  -8.9749
 -6.6558  -6.6552  -6.6547  -1.1640  -1.0542  -0.9996  -0.9377  -0.8838
 -0.7431  -0.7265  -0.6464  -0.5917  -0.5787  -0.5669  -0.5577  -0.5420
 -0.5125  -0.4773  -0.4683  -0.4368  -0.3362  -0.3036

          Ground-State Mulliken Net Atomic Charges

     Atom                 Charge (a.u.)
  ----------------------------------------
      1 C                     0.021250
      2 C                    -0.253656
      3 C                     0.034258
      4 H                     0.176059
      5 C                    -0.241859
      6 S                    -0.003227
      7 C                    -0.270438
      8 H                     0.101246
      9 H                     0.107083
     10 H                     0.106527
     11 C                    -0.365710
     12 H                     0.122251
     13 H                     0.138070
     14 H                     0.134899
     15 H                     0.193247
  ----------------------------------------
  Sum of atomic charges =     0.000000

                    Cartesian Multipole Moments
 -----------------------------------------------------------------
    Charge (ESU x 10^10)
                -0.0000
    Dipole Moment (Debye)
         X       1.0136      Y       0.0467      Z       2.1763
       Tot       2.4012
    Quadrupole Moments (Debye-Ang)
        XX     -51.7945     XY       3.6630     YY     -44.8360
        XZ      -0.2616     YZ      -1.1021     ZZ     -48.7409

 Total job time:  157.64s(wall), 156.91s(cpu)
        *  Thank you very much for using Q-Chem.  Have a nice day.  *
