 Q-Chem 5.4, Q-Chem, Inc., Pleasanton, CA (2021)
 Q-Chem 5.4.0 for Intel X86 EM64T Linux

User input:
--------------------------------------------------------------
$molecule
0 1
C	-0.342524	-0.485421	0.018590
C	0.089276	0.262479	1.117990
C	0.781276	1.460979	0.795290
H	-0.095124	-0.056921	2.154690
C	0.891576	1.652079	-0.593910
S	0.128676	0.330679	-1.468210
C	1.325176	2.402979	1.833190
H	1.112376	2.034379	2.855290
H	0.879476	3.415779	1.744790
H	2.425176	2.523379	1.744790
C	-0.342524	-1.926121	0.018590
H	0.484876	-1.925821	-0.675510
H	0.183976	-2.629921	0.646190
H	-0.951324	-2.445021	-0.706910
H	1.366276	2.474079	-1.143010
$end

$rem
JOBTYPE		SP
EXCHANGE	HF
CORRELATION	pRIMP2
BASIS		cc-pvtz
METHOD		rimp2
AUX_BASIS	rimp2-cc-pvtz
SOLVENT_METHOD	PCM
PURECART	11111
SYMMETRY	false
MEM_TOTAL	110000
SCF_CONVERGENCE = 6
THRESH=10
$end

$solvent
dielectric 4.90
$end
--------------------------------------------------------------

   10    -629.4043486688      6.69e-07  Convergence criterion met
 Total energy in the final basis set =     -629.4043486688
        RIMP2         total energy =      -630.5841848833 a.u.
 Total job time:  157.98s(wall), 157.51s(cpu)
        *  Thank you very much for using Q-Chem.  Have a nice day.  *
 Q-Chem 5.4, Q-Chem, Inc., Pleasanton, CA (2021)
 Q-Chem 5.4.0 for Intel X86 EM64T Linux

User input:
--------------------------------------------------------------
$molecule
0 1
C	-0.342524	-0.485421	0.018590
C	0.089276	0.262479	1.117990
C	0.781276	1.460979	0.795290
H	-0.095124	-0.056921	2.154690
C	0.891576	1.652079	-0.593910
S	0.128676	0.330679	-1.468210
C	1.325176	2.402979	1.833190
H	1.112376	2.034379	2.855290
H	0.879476	3.415779	1.744790
H	2.425176	2.523379	1.744790
C	-0.342524	-1.926121	0.018590
H	0.484876	-1.925821	-0.675510
H	0.183976	-2.629921	0.646190
H	-0.951324	-2.445021	-0.706910
H	1.366276	2.474079	-1.143010
$end

$rem
JOBTYPE		SP
EXCHANGE	HF
CORRELATION	pRIMP2
BASIS		cc-pvtz
METHOD		rimp2
AUX_BASIS	rimp2-cc-pvtz
SOLVENT_METHOD	PCM
PURECART	11111
SYMMETRY	false
MEM_TOTAL	110000
SCF_CONVERGENCE = 6
THRESH=10
$end

$solvent
dielectric 4.90
$end
--------------------------------------------------------------

             Standard Nuclear Orientation (Angstroms)
    I     Atom           X                Y                Z
 ----------------------------------------------------------------
    1      C      -0.3425240000    -0.4854210000     0.0185900000
    2      C       0.0892760000     0.2624790000     1.1179900000
    3      C       0.7812760000     1.4609790000     0.7952900000
    4      H      -0.0951240000    -0.0569210000     2.1546900000
    5      C       0.8915760000     1.6520790000    -0.5939100000
    6      S       0.1286760000     0.3306790000    -1.4682100000
    7      C       1.3251760000     2.4029790000     1.8331900000
    8      H       1.1123760000     2.0343790000     2.8552900000
    9      H       0.8794760000     3.4157790000     1.7447900000
   10      H       2.4251760000     2.5233790000     1.7447900000
   11      C      -0.3425240000    -1.9261210000     0.0185900000
   12      H       0.4848760000    -1.9258210000    -0.6755100000
   13      H       0.1839760000    -2.6299210000     0.6461900000
   14      H      -0.9513240000    -2.4450210000    -0.7069100000
   15      H       1.3662760000     2.4740790000    -1.1430100000
 ----------------------------------------------------------------

   10    -629.4043486688      6.69e-07  Convergence criterion met
 Total energy in the final basis set =     -629.4043486688
        RIMP2         total energy =      -630.5841848833 a.u.

                    Orbital Energies (a.u.)
 --------------------------------------------------------------

 Alpha MOs
 -- Occupied --
-91.9752 -11.2752 -11.2587 -11.2472 -11.2312 -11.2271 -11.2164  -8.9758
 -6.6568  -6.6562  -6.6556  -1.1643  -1.0564  -0.9948  -0.9441  -0.8806
 -0.7477  -0.7203  -0.6478  -0.5868  -0.5793  -0.5646  -0.5526  -0.5477
 -0.5108  -0.4880  -0.4625  -0.4489  -0.3398  -0.2928

          Ground-State Mulliken Net Atomic Charges

     Atom                 Charge (a.u.)
  ----------------------------------------
      1 C                     0.040165
      2 C                    -0.299244
      3 C                     0.052427
      4 H                     0.179089
      5 C                    -0.254724
      6 S                    -0.006291
      7 C                    -0.270661
      8 H                     0.101607
      9 H                     0.107701
     10 H                     0.106539
     11 C                    -0.373289
     12 H                     0.137376
     13 H                     0.158934
     14 H                     0.126803
     15 H                     0.193566
  ----------------------------------------
  Sum of atomic charges =     0.000000

                    Cartesian Multipole Moments
 -----------------------------------------------------------------
    Charge (ESU x 10^10)
                -0.0000
    Dipole Moment (Debye)
         X       1.3167      Y      -0.2538      Z       1.1162
       Tot       1.7447
    Quadrupole Moments (Debye-Ang)
        XX     -52.4191     XY       2.7219     YY     -44.5301
        XZ       0.4355     YZ       0.9600     ZZ     -48.5820

 Total job time:  157.76s(wall), 155.97s(cpu)
        *  Thank you very much for using Q-Chem.  Have a nice day.  *
