 Q-Chem 5.4, Q-Chem, Inc., Pleasanton, CA (2021)
 Q-Chem 5.4.0 for Intel X86 EM64T Linux

User input:
--------------------------------------------------------------
$molecule
0 1
C	-0.522990	-0.333972	0.011472
C	0.138610	0.221128	1.110872
C	1.198710	1.110628	0.788172
H	-0.143890	-0.015972	2.147572
C	1.367810	1.252428	-0.601028
S	0.198910	0.271728	-1.475328
C	2.032010	1.809828	1.826072
H	1.705910	1.536228	2.848172
H	1.959610	2.914028	1.737672
H	3.106810	1.546728	1.737672
C	-0.522990	-1.774672	0.011472
H	0.304310	-1.774872	0.705772
H	0.003610	-2.478472	-0.616028
H	-1.131790	-2.293572	0.737072
H	2.094910	1.862628	-1.150128
$end

$rem
JOBTYPE		SP
EXCHANGE	HF
CORRELATION	pRIMP2
BASIS		cc-pvtz
METHOD		rimp2
AUX_BASIS	rimp2-cc-pvtz
SOLVENT_METHOD	PCM
PURECART	11111
SYMMETRY	false
MEM_TOTAL	110000
SCF_CONVERGENCE = 6
THRESH=10
$end

$solvent
dielectric 4.90
$end
--------------------------------------------------------------

             Standard Nuclear Orientation (Angstroms)
    I     Atom           X                Y                Z
 ----------------------------------------------------------------
    1      C      -0.5229900000    -0.3339720000     0.0114720000
    2      C       0.1386100000     0.2211280000     1.1108720000
    3      C       1.1987100000     1.1106280000     0.7881720000
    4      H      -0.1438900000    -0.0159720000     2.1475720000
    5      C       1.3678100000     1.2524280000    -0.6010280000
    6      S       0.1989100000     0.2717280000    -1.4753280000
    7      C       2.0320100000     1.8098280000     1.8260720000
    8      H       1.7059100000     1.5362280000     2.8481720000
    9      H       1.9596100000     2.9140280000     1.7376720000
   10      H       3.1068100000     1.5467280000     1.7376720000
   11      C      -0.5229900000    -1.7746720000     0.0114720000
   12      H       0.3043100000    -1.7748720000     0.7057720000
   13      H       0.0036100000    -2.4784720000    -0.6160280000
   14      H      -1.1317900000    -2.2935720000     0.7370720000
   15      H       2.0949100000     1.8626280000    -1.1501280000
 ----------------------------------------------------------------

   11    -629.3617207038      4.62e-07  Convergence criterion met
 Total energy in the final basis set =     -629.3617207038
        RIMP2         total energy =      -630.5523872798 a.u.

                    Orbital Energies (a.u.)
 --------------------------------------------------------------

 Alpha MOs
 -- Occupied --
-91.9790 -11.2687 -11.2617 -11.2493 -11.2385 -11.2285 -11.2093  -8.9790
 -6.6598  -6.6591  -6.6588  -1.1713  -1.0562  -1.0001  -0.9347  -0.8822
 -0.7461  -0.7283  -0.6442  -0.5892  -0.5782  -0.5742  -0.5540  -0.5447
 -0.5149  -0.4764  -0.4537  -0.4523  -0.3332  -0.2890

          Ground-State Mulliken Net Atomic Charges

     Atom                 Charge (a.u.)
  ----------------------------------------
      1 C                    -0.053808
      2 C                    -0.173651
      3 C                    -0.003214
      4 H                     0.180740
      5 C                    -0.227959
      6 S                     0.019733
      7 C                    -0.268179
      8 H                     0.101830
      9 H                     0.107201
     10 H                     0.104465
     11 C                    -0.386423
     12 H                     0.136425
     13 H                     0.154837
     14 H                     0.112365
     15 H                     0.195638
  ----------------------------------------
  Sum of atomic charges =     0.000000

                    Cartesian Multipole Moments
 -----------------------------------------------------------------
    Charge (ESU x 10^10)
                -0.0000
    Dipole Moment (Debye)
         X       2.1199      Y      -0.0579      Z       1.9054
       Tot       2.8509
    Quadrupole Moments (Debye-Ang)
        XX     -50.0337     XY       3.5423     YY     -48.4167
        XZ      -0.4425     YZ      -0.6069     ZZ     -47.9108

 Total job time:  177.79s(wall), 174.68s(cpu)
        *  Thank you very much for using Q-Chem.  Have a nice day.  *
