 Q-Chem 5.4, Q-Chem, Inc., Pleasanton, CA (2021)
 Q-Chem 5.4.0 for Intel X86 EM64T Linux

User input:
--------------------------------------------------------------
$molecule
0 1
C	-0.233131	-0.535395	0.010276
C	0.062269	0.276105	1.109676
C	0.535569	1.576505	0.786976
H	-0.063831	-0.070395	2.146376
C	0.611069	1.783905	-0.602224
S	0.089169	0.350205	-1.476524
C	0.907669	2.598705	1.824876
H	0.762069	2.198705	2.846976
H	0.292869	3.518705	1.736476
H	1.970069	2.908305	1.736476
C	-0.233131	-1.976095	0.010276
H	0.136169	-1.976295	1.025176
H	0.536669	-2.679895	-0.269824
H	-1.123131	-2.494995	0.334176
H	0.935769	2.675905	-1.151324
$end

$rem
JOBTYPE		SP
EXCHANGE	HF
CORRELATION	pRIMP2
BASIS		cc-pvtz
METHOD		rimp2
AUX_BASIS	rimp2-cc-pvtz
SOLVENT_METHOD	PCM
PURECART	11111
SYMMETRY	false
MEM_TOTAL	110000
SCF_CONVERGENCE = 6
THRESH=10
$end

$solvent
dielectric 4.90
$end
--------------------------------------------------------------

             Standard Nuclear Orientation (Angstroms)
    I     Atom           X                Y                Z
 ----------------------------------------------------------------
    1      C      -0.2331310000    -0.5353950000     0.0102760000
    2      C       0.0622690000     0.2761050000     1.1096760000
    3      C       0.5355690000     1.5765050000     0.7869760000
    4      H      -0.0638310000    -0.0703950000     2.1463760000
    5      C       0.6110690000     1.7839050000    -0.6022240000
    6      S       0.0891690000     0.3502050000    -1.4765240000
    7      C       0.9076690000     2.5987050000     1.8248760000
    8      H       0.7620690000     2.1987050000     2.8469760000
    9      H       0.2928690000     3.5187050000     1.7364760000
   10      H       1.9700690000     2.9083050000     1.7364760000
   11      C      -0.2331310000    -1.9760950000     0.0102760000
   12      H       0.1361690000    -1.9762950000     1.0251760000
   13      H       0.5366690000    -2.6798950000    -0.2698240000
   14      H      -1.1231310000    -2.4949950000     0.3341760000
   15      H       0.9357690000     2.6759050000    -1.1513240000
 ----------------------------------------------------------------

   10    -629.4142371557      5.03e-07  Convergence criterion met
 Total energy in the final basis set =     -629.4142371557
        RIMP2         total energy =      -630.5941911557 a.u.

                    Orbital Energies (a.u.)
 --------------------------------------------------------------

 Alpha MOs
 -- Occupied --
-91.9757 -11.2756 -11.2580 -11.2473 -11.2341 -11.2275 -11.2147  -8.9758
 -6.6567  -6.6561  -6.6556  -1.1622  -1.0540  -0.9995  -0.9386  -0.8841
 -0.7425  -0.7245  -0.6477  -0.5905  -0.5776  -0.5696  -0.5574  -0.5421
 -0.5120  -0.4792  -0.4683  -0.4402  -0.3365  -0.3014

          Ground-State Mulliken Net Atomic Charges

     Atom                 Charge (a.u.)
  ----------------------------------------
      1 C                     0.043188
      2 C                    -0.265830
      3 C                     0.033211
      4 H                     0.175914
      5 C                    -0.251190
      6 S                    -0.003547
      7 C                    -0.272124
      8 H                     0.101188
      9 H                     0.107146
     10 H                     0.106881
     11 C                    -0.375297
     12 H                     0.129105
     13 H                     0.153565
     14 H                     0.125234
     15 H                     0.192556
  ----------------------------------------
  Sum of atomic charges =     0.000000

                    Cartesian Multipole Moments
 -----------------------------------------------------------------
    Charge (ESU x 10^10)
                -0.0000
    Dipole Moment (Debye)
         X       0.7452      Y      -0.0860      Z       2.1252
       Tot       2.2537
    Quadrupole Moments (Debye-Ang)
        XX     -52.9360     XY       2.1749     YY     -43.4336
        XZ      -0.2522     YZ      -0.9822     ZZ     -48.7941

 Total job time:  159.54s(wall), 156.80s(cpu)
        *  Thank you very much for using Q-Chem.  Have a nice day.  *
