 Q-Chem 5.4, Q-Chem, Inc., Pleasanton, CA (2021)
 Q-Chem 5.4.0 for Intel X86 EM64T Linux

User input:
--------------------------------------------------------------
$molecule
0 1
C	-0.337769	-0.485421	0.019710
C	0.094031	0.262479	1.119110
C	0.786031	1.460979	0.796410
H	-0.090369	-0.056921	2.155810
C	0.896331	1.652079	-0.592790
S	0.133431	0.330679	-1.467090
C	1.329931	2.402979	1.834310
H	1.117131	2.034379	2.856410
H	0.884231	3.415779	1.745910
H	2.429931	2.523379	1.745910
C	-0.337769	-1.926121	0.019710
H	-0.525169	-1.925821	-1.043890
H	0.469031	-2.629921	-0.122490
H	-1.270469	-2.445021	0.184210
H	1.371031	2.474079	-1.141890
$end

$rem
JOBTYPE		SP
EXCHANGE	HF
CORRELATION	pRIMP2
BASIS		cc-pvtz
METHOD		rimp2
AUX_BASIS	rimp2-cc-pvtz
SOLVENT_METHOD	PCM
PURECART	11111
SYMMETRY	false
MEM_TOTAL	110000
SCF_CONVERGENCE = 6
THRESH=10
$end

$solvent
dielectric 4.90
$end
--------------------------------------------------------------

             Standard Nuclear Orientation (Angstroms)
    I     Atom           X                Y                Z
 ----------------------------------------------------------------
    1      C      -0.3377690000    -0.4854210000     0.0197100000
    2      C       0.0940310000     0.2624790000     1.1191100000
    3      C       0.7860310000     1.4609790000     0.7964100000
    4      H      -0.0903690000    -0.0569210000     2.1558100000
    5      C       0.8963310000     1.6520790000    -0.5927900000
    6      S       0.1334310000     0.3306790000    -1.4670900000
    7      C       1.3299310000     2.4029790000     1.8343100000
    8      H       1.1171310000     2.0343790000     2.8564100000
    9      H       0.8842310000     3.4157790000     1.7459100000
   10      H       2.4299310000     2.5233790000     1.7459100000
   11      C      -0.3377690000    -1.9261210000     0.0197100000
   12      H      -0.5251690000    -1.9258210000    -1.0438900000
   13      H       0.4690310000    -2.6299210000    -0.1224900000
   14      H      -1.2704690000    -2.4450210000     0.1842100000
   15      H       1.3710310000     2.4740790000    -1.1418900000
 ----------------------------------------------------------------

   10    -629.4010486598      5.50e-07  Convergence criterion met
 Total energy in the final basis set =     -629.4010486598
        RIMP2         total energy =      -630.5832553872 a.u.

                    Orbital Energies (a.u.)
 --------------------------------------------------------------

 Alpha MOs
 -- Occupied --
-91.9792 -11.2654 -11.2645 -11.2474 -11.2349 -11.2273 -11.2125  -8.9793
 -6.6602  -6.6595  -6.6590  -1.1634  -1.0546  -0.9948  -0.9457  -0.8811
 -0.7494  -0.7208  -0.6463  -0.5888  -0.5768  -0.5689  -0.5516  -0.5471
 -0.5134  -0.4742  -0.4642  -0.4423  -0.3369  -0.3044

          Ground-State Mulliken Net Atomic Charges

     Atom                 Charge (a.u.)
  ----------------------------------------
      1 C                    -0.001419
      2 C                    -0.239983
      3 C                     0.037302
      4 H                     0.179515
      5 C                    -0.242441
      6 S                     0.000500
      7 C                    -0.271175
      8 H                     0.102037
      9 H                     0.106732
     10 H                     0.105891
     11 C                    -0.353994
     12 H                     0.110249
     13 H                     0.146646
     14 H                     0.124442
     15 H                     0.195699
  ----------------------------------------
  Sum of atomic charges =     0.000000

                    Cartesian Multipole Moments
 -----------------------------------------------------------------
    Charge (ESU x 10^10)
                -0.0000
    Dipole Moment (Debye)
         X       0.8370      Y       0.2537      Z       0.9678
       Tot       1.3045
    Quadrupole Moments (Debye-Ang)
        XX     -51.6328     XY       4.0062     YY     -44.8161
        XZ       0.0574     YZ       1.2515     ZZ     -48.6249

 Total job time:  157.91s(wall), 156.82s(cpu)
        *  Thank you very much for using Q-Chem.  Have a nice day.  *
