 Q-Chem 5.4, Q-Chem, Inc., Pleasanton, CA (2021)
 Q-Chem 5.4.0 for Intel X86 EM64T Linux

User input:
--------------------------------------------------------------
$molecule
0 1
C	-0.227649	-0.535395	0.017232
C	0.067751	0.276105	1.116632
C	0.541051	1.576505	0.793932
H	-0.058349	-0.070395	2.153332
C	0.616551	1.783905	-0.595268
S	0.094651	0.350205	-1.469568
C	0.913151	2.598705	1.831832
H	0.767551	2.198705	2.853932
H	0.298351	3.518705	1.743432
H	1.975551	2.908305	1.743432
C	-0.227649	-1.976095	0.017232
H	-1.242449	-1.976295	-0.352268
H	-0.507849	-2.679895	0.787032
H	0.096251	-2.494995	-0.872768
H	0.941251	2.675905	-1.144368
$end

$rem
JOBTYPE		SP
EXCHANGE	HF
CORRELATION	pRIMP2
BASIS		cc-pvtz
METHOD		rimp2
AUX_BASIS	rimp2-cc-pvtz
SOLVENT_METHOD	PCM
PURECART	11111
SYMMETRY	false
MEM_TOTAL	110000
SCF_CONVERGENCE = 6
THRESH=10
$end

$solvent
dielectric 4.90
$end
--------------------------------------------------------------

   10    -629.4121239705      6.17e-07  Convergence criterion met
 Total energy in the final basis set =     -629.4121239705
        RIMP2         total energy =      -630.5901389010 a.u.
 Total job time:  171.36s(wall), 169.09s(cpu)
        *  Thank you very much for using Q-Chem.  Have a nice day.  *
 Q-Chem 5.4, Q-Chem, Inc., Pleasanton, CA (2021)
 Q-Chem 5.4.0 for Intel X86 EM64T Linux

User input:
--------------------------------------------------------------
$molecule
0 1
C	-0.227649	-0.535395	0.017232
C	0.067751	0.276105	1.116632
C	0.541051	1.576505	0.793932
H	-0.058349	-0.070395	2.153332
C	0.616551	1.783905	-0.595268
S	0.094651	0.350205	-1.469568
C	0.913151	2.598705	1.831832
H	0.767551	2.198705	2.853932
H	0.298351	3.518705	1.743432
H	1.975551	2.908305	1.743432
C	-0.227649	-1.976095	0.017232
H	-1.242449	-1.976295	-0.352268
H	-0.507849	-2.679895	0.787032
H	0.096251	-2.494995	-0.872768
H	0.941251	2.675905	-1.144368
$end

$rem
JOBTYPE		SP
EXCHANGE	HF
CORRELATION	pRIMP2
BASIS		cc-pvtz
METHOD		rimp2
AUX_BASIS	rimp2-cc-pvtz
SOLVENT_METHOD	PCM
PURECART	11111
SYMMETRY	false
MEM_TOTAL	110000
SCF_CONVERGENCE = 6
THRESH=10
$end

$solvent
dielectric 4.90
$end
--------------------------------------------------------------

             Standard Nuclear Orientation (Angstroms)
    I     Atom           X                Y                Z
 ----------------------------------------------------------------
    1      C      -0.2276490000    -0.5353950000     0.0172320000
    2      C       0.0677510000     0.2761050000     1.1166320000
    3      C       0.5410510000     1.5765050000     0.7939320000
    4      H      -0.0583490000    -0.0703950000     2.1533320000
    5      C       0.6165510000     1.7839050000    -0.5952680000
    6      S       0.0946510000     0.3502050000    -1.4695680000
    7      C       0.9131510000     2.5987050000     1.8318320000
    8      H       0.7675510000     2.1987050000     2.8539320000
    9      H       0.2983510000     3.5187050000     1.7434320000
   10      H       1.9755510000     2.9083050000     1.7434320000
   11      C      -0.2276490000    -1.9760950000     0.0172320000
   12      H      -1.2424490000    -1.9762950000    -0.3522680000
   13      H      -0.5078490000    -2.6798950000     0.7870320000
   14      H       0.0962510000    -2.4949950000    -0.8727680000
   15      H       0.9412510000     2.6759050000    -1.1443680000
 ----------------------------------------------------------------

   10    -629.4121239705      6.17e-07  Convergence criterion met
 Total energy in the final basis set =     -629.4121239705
        RIMP2         total energy =      -630.5901389010 a.u.

                    Orbital Energies (a.u.)
 --------------------------------------------------------------

 Alpha MOs
 -- Occupied --
-91.9786 -11.2796 -11.2531 -11.2468 -11.2264 -11.2255 -11.2182  -8.9785
 -6.6595  -6.6589  -6.6583  -1.1607  -1.0554  -0.9961  -0.9437  -0.8821
 -0.7452  -0.7189  -0.6477  -0.5872  -0.5737  -0.5682  -0.5527  -0.5464
 -0.5096  -0.4918  -0.4604  -0.4557  -0.3384  -0.2891

          Ground-State Mulliken Net Atomic Charges

     Atom                 Charge (a.u.)
  ----------------------------------------
      1 C                     0.027497
      2 C                    -0.271746
      3 C                     0.041352
      4 H                     0.179619
      5 C                    -0.266791
      6 S                    -0.002614
      7 C                    -0.272584
      8 H                     0.101356
      9 H                     0.107081
     10 H                     0.106736
     11 C                    -0.377979
     12 H                     0.132430
     13 H                     0.161394
     14 H                     0.139943
     15 H                     0.194306
  ----------------------------------------
  Sum of atomic charges =     0.000000

                    Cartesian Multipole Moments
 -----------------------------------------------------------------
    Charge (ESU x 10^10)
                -0.0000
    Dipole Moment (Debye)
         X      -0.2168      Y      -0.4752      Z       1.1976
       Tot       1.3066
    Quadrupole Moments (Debye-Ang)
        XX     -53.1070     XY       4.3039     YY     -43.0039
        XZ      -0.1330     YZ       0.5818     ZZ     -48.5081

 Total job time:  157.90s(wall), 156.30s(cpu)
        *  Thank you very much for using Q-Chem.  Have a nice day.  *
