 Q-Chem 5.4, Q-Chem, Inc., Pleasanton, CA (2021)
 Q-Chem 5.4.0 for Intel X86 EM64T Linux

User input:
--------------------------------------------------------------
$molecule
0 1
C	-0.440719	-0.417594	0.013623
C	0.114381	0.243906	1.113023
C	1.003981	1.304106	0.790323
H	-0.122619	-0.038594	2.149723
C	1.145881	1.473106	-0.598877
S	0.165081	0.304306	-1.473177
C	1.703181	2.137306	1.828223
H	1.429581	1.811306	2.850323
H	1.440181	3.212106	1.739823
H	2.807381	2.064906	1.739823
C	-0.440719	-1.858294	0.013623
H	0.622881	-1.858494	0.201323
H	-0.298419	-2.562094	-0.793077
H	-0.605219	-2.377194	0.946323
H	1.755981	2.200206	-1.147977
$end

$rem
JOBTYPE		SP
EXCHANGE	HF
CORRELATION	pRIMP2
BASIS		cc-pvtz
METHOD		rimp2
AUX_BASIS	rimp2-cc-pvtz
SOLVENT_METHOD	PCM
PURECART	11111
SYMMETRY	false
MEM_TOTAL	110000
SCF_CONVERGENCE = 6
THRESH=10
$end

$solvent
dielectric 4.90
$end
--------------------------------------------------------------

             Standard Nuclear Orientation (Angstroms)
    I     Atom           X                Y                Z
 ----------------------------------------------------------------
    1      C      -0.4407190000    -0.4175940000     0.0136230000
    2      C       0.1143810000     0.2439060000     1.1130230000
    3      C       1.0039810000     1.3041060000     0.7903230000
    4      H      -0.1226190000    -0.0385940000     2.1497230000
    5      C       1.1458810000     1.4731060000    -0.5988770000
    6      S       0.1650810000     0.3043060000    -1.4731770000
    7      C       1.7031810000     2.1373060000     1.8282230000
    8      H       1.4295810000     1.8113060000     2.8503230000
    9      H       1.4401810000     3.2121060000     1.7398230000
   10      H       2.8073810000     2.0649060000     1.7398230000
   11      C      -0.4407190000    -1.8582940000     0.0136230000
   12      H       0.6228810000    -1.8584940000     0.2013230000
   13      H      -0.2984190000    -2.5620940000    -0.7930770000
   14      H      -0.6052190000    -2.3771940000     0.9463230000
   15      H       1.7559810000     2.2002060000    -1.1479770000
 ----------------------------------------------------------------

   10    -629.3925432334      5.77e-07  Convergence criterion met
 Total energy in the final basis set =     -629.3925432334
        RIMP2         total energy =      -630.5760102583 a.u.

                    Orbital Energies (a.u.)
 --------------------------------------------------------------

 Alpha MOs
 -- Occupied --
-91.9773 -11.2763 -11.2588 -11.2492 -11.2295 -11.2277 -11.2185  -8.9775
 -6.6584  -6.6578  -6.6573  -1.1674  -1.0570  -0.9976  -0.9383  -0.8820
 -0.7458  -0.7231  -0.6454  -0.5881  -0.5815  -0.5693  -0.5532  -0.5455
 -0.5096  -0.4891  -0.4592  -0.4552  -0.3381  -0.2870

          Ground-State Mulliken Net Atomic Charges

     Atom                 Charge (a.u.)
  ----------------------------------------
      1 C                     0.011770
      2 C                    -0.259503
      3 C                     0.038047
      4 H                     0.175971
      5 C                    -0.260260
      6 S                     0.006381
      7 C                    -0.269110
      8 H                     0.101881
      9 H                     0.107737
     10 H                     0.105723
     11 C                    -0.376524
     12 H                     0.145214
     13 H                     0.154098
     14 H                     0.124747
     15 H                     0.193828
  ----------------------------------------
  Sum of atomic charges =     0.000000

                    Cartesian Multipole Moments
 -----------------------------------------------------------------
    Charge (ESU x 10^10)
                -0.0000
    Dipole Moment (Debye)
         X       1.6504      Y      -0.4455      Z       1.6034
       Tot       2.3438
    Quadrupole Moments (Debye-Ang)
        XX     -51.6279     XY       3.3517     YY     -46.0632
        XZ       0.0455     YZ      -0.0131     ZZ     -48.2981

 Total job time:  161.97s(wall), 160.02s(cpu)
        *  Thank you very much for using Q-Chem.  Have a nice day.  *
