 Q-Chem 5.4, Q-Chem, Inc., Pleasanton, CA (2021)
 Q-Chem 5.4.0 for Intel X86 EM64T Linux

User input:
--------------------------------------------------------------
$molecule
0 1
C	-0.064023	-0.573729	0.014755
C	0.011277	0.286571	1.114155
C	0.131877	1.665271	0.791455
H	-0.020823	-0.080829	2.150855
C	0.151177	1.885071	-0.597745
S	0.018177	0.365071	-1.472045
C	0.226777	2.748871	1.829355
H	0.189677	2.324771	2.851455
H	-0.605223	3.478371	1.740955
H	1.172777	3.322871	1.740955
C	-0.064023	-2.014429	0.014755
H	0.999577	-2.014129	0.202455
H	-0.206323	-2.718229	0.821455
H	0.100477	-2.533329	-0.917945
H	0.233877	2.830671	-1.146845
$end

$rem
JOBTYPE		SP
EXCHANGE	HF
CORRELATION	pRIMP2
BASIS		cc-pvtz
METHOD		rimp2
AUX_BASIS	rimp2-cc-pvtz
SOLVENT_METHOD	PCM
PURECART	11111
SYMMETRY	false
MEM_TOTAL	110000
SCF_CONVERGENCE = 6
THRESH=10
$end

$solvent
dielectric 4.90
$end
--------------------------------------------------------------

             Standard Nuclear Orientation (Angstroms)
    I     Atom           X                Y                Z
 ----------------------------------------------------------------
    1      C      -0.0640230000    -0.5737290000     0.0147550000
    2      C       0.0112770000     0.2865710000     1.1141550000
    3      C       0.1318770000     1.6652710000     0.7914550000
    4      H      -0.0208230000    -0.0808290000     2.1508550000
    5      C       0.1511770000     1.8850710000    -0.5977450000
    6      S       0.0181770000     0.3650710000    -1.4720450000
    7      C       0.2267770000     2.7488710000     1.8293550000
    8      H       0.1896770000     2.3247710000     2.8514550000
    9      H      -0.6052230000     3.4783710000     1.7409550000
   10      H       1.1727770000     3.3228710000     1.7409550000
   11      C      -0.0640230000    -2.0144290000     0.0147550000
   12      H       0.9995770000    -2.0141290000     0.2024550000
   13      H      -0.2063230000    -2.7182290000     0.8214550000
   14      H       0.1004770000    -2.5333290000    -0.9179450000
   15      H       0.2338770000     2.8306710000    -1.1468450000
 ----------------------------------------------------------------

   10    -629.4243986377      7.03e-07  Convergence criterion met
 Total energy in the final basis set =     -629.4243986377
        RIMP2         total energy =      -630.5996106823 a.u.

                    Orbital Energies (a.u.)
 --------------------------------------------------------------

 Alpha MOs
 -- Occupied --
-91.9793 -11.2861 -11.2482 -11.2469 -11.2263 -11.2224 -11.2217  -8.9790
 -6.6600  -6.6595  -6.6588  -1.1603  -1.0563  -0.9974  -0.9418  -0.8826
 -0.7434  -0.7188  -0.6498  -0.5869  -0.5742  -0.5676  -0.5555  -0.5458
 -0.5069  -0.4940  -0.4664  -0.4571  -0.3382  -0.2884

          Ground-State Mulliken Net Atomic Charges

     Atom                 Charge (a.u.)
  ----------------------------------------
      1 C                     0.066917
      2 C                    -0.311095
      3 C                     0.051826
      4 H                     0.174301
      5 C                    -0.283425
      6 S                     0.004489
      7 C                    -0.274421
      8 H                     0.101332
      9 H                     0.107204
     10 H                     0.107333
     11 C                    -0.384722
     12 H                     0.146803
     13 H                     0.163532
     14 H                     0.137154
     15 H                     0.192773
  ----------------------------------------
  Sum of atomic charges =     0.000000

                    Cartesian Multipole Moments
 -----------------------------------------------------------------
    Charge (ESU x 10^10)
                -0.0000
    Dipole Moment (Debye)
         X       0.8271      Y      -0.7709      Z       1.4976
       Tot       1.8765
    Quadrupole Moments (Debye-Ang)
        XX     -54.4071     XY      -0.7531     YY     -41.8073
        XZ      -0.0203     YZ      -0.0623     ZZ     -48.5730

 Total job time:  158.16s(wall), 157.11s(cpu)
        *  Thank you very much for using Q-Chem.  Have a nice day.  *
