 Q-Chem 5.4, Q-Chem, Inc., Pleasanton, CA (2021)
 Q-Chem 5.4.0 for Intel X86 EM64T Linux

User input:
--------------------------------------------------------------
$molecule
0 1
C	-0.060554	-0.573727	0.019710
C	0.014746	0.286573	1.119110
C	0.135346	1.665273	0.796410
H	-0.017354	-0.080827	2.155810
C	0.154646	1.885073	-0.592790
S	0.021646	0.365073	-1.467090
C	0.230246	2.748873	1.834310
H	0.193146	2.324773	2.856410
H	-0.601754	3.478373	1.745910
H	1.176246	3.322873	1.745910
C	-0.060554	-2.014427	0.019710
H	0.127146	-2.014627	-1.043890
H	-0.867254	-2.718227	-0.122590
H	0.872146	-2.533327	0.184210
H	0.237346	2.830673	-1.141890
$end

$rem
JOBTYPE		SP
EXCHANGE	HF
CORRELATION	pRIMP2
BASIS		cc-pvtz
METHOD		rimp2
AUX_BASIS	rimp2-cc-pvtz
SOLVENT_METHOD	PCM
PURECART	11111
SYMMETRY	false
MEM_TOTAL	110000
SCF_CONVERGENCE = 6
THRESH=10
$end

$solvent
dielectric 4.90
$end
--------------------------------------------------------------

             Standard Nuclear Orientation (Angstroms)
    I     Atom           X                Y                Z
 ----------------------------------------------------------------
    1      C      -0.0605540000    -0.5737270000     0.0197100000
    2      C       0.0147460000     0.2865730000     1.1191100000
    3      C       0.1353460000     1.6652730000     0.7964100000
    4      H      -0.0173540000    -0.0808270000     2.1558100000
    5      C       0.1546460000     1.8850730000    -0.5927900000
    6      S       0.0216460000     0.3650730000    -1.4670900000
    7      C       0.2302460000     2.7488730000     1.8343100000
    8      H       0.1931460000     2.3247730000     2.8564100000
    9      H      -0.6017540000     3.4783730000     1.7459100000
   10      H       1.1762460000     3.3228730000     1.7459100000
   11      C      -0.0605540000    -2.0144270000     0.0197100000
   12      H       0.1271460000    -2.0146270000    -1.0438900000
   13      H      -0.8672540000    -2.7182270000    -0.1225900000
   14      H       0.8721460000    -2.5333270000     0.1842100000
   15      H       0.2373460000     2.8306730000    -1.1418900000
 ----------------------------------------------------------------

   10    -629.4204368213      5.48e-07  Convergence criterion met
 Total energy in the final basis set =     -629.4204368213
        RIMP2         total energy =      -630.5982814678 a.u.

                    Orbital Energies (a.u.)
 --------------------------------------------------------------

 Alpha MOs
 -- Occupied --
-91.9804 -11.2751 -11.2576 -11.2471 -11.2292 -11.2268 -11.2161  -8.9802
 -6.6612  -6.6606  -6.6600  -1.1610  -1.0552  -0.9953  -0.9463  -0.8816
 -0.7479  -0.7186  -0.6480  -0.5916  -0.5755  -0.5660  -0.5533  -0.5475
 -0.5087  -0.4863  -0.4649  -0.4442  -0.3384  -0.3036

          Ground-State Mulliken Net Atomic Charges

     Atom                 Charge (a.u.)
  ----------------------------------------
      1 C                     0.058737
      2 C                    -0.265148
      3 C                     0.040938
      4 H                     0.179969
      5 C                    -0.260531
      6 S                    -0.002613
      7 C                    -0.273162
      8 H                     0.101869
      9 H                     0.106897
     10 H                     0.106876
     11 C                    -0.371946
     12 H                     0.112954
     13 H                     0.142379
     14 H                     0.127480
     15 H                     0.195301
  ----------------------------------------
  Sum of atomic charges =     0.000000

                    Cartesian Multipole Moments
 -----------------------------------------------------------------
    Charge (ESU x 10^10)
                -0.0000
    Dipole Moment (Debye)
         X       0.2640      Y       0.0168      Z       0.8566
       Tot       0.8965
    Quadrupole Moments (Debye-Ang)
        XX     -53.6633     XY       0.6104     YY     -42.2583
        XZ       0.1713     YZ       1.5112     ZZ     -48.8253

 Total job time:  158.24s(wall), 157.28s(cpu)
        *  Thank you very much for using Q-Chem.  Have a nice day.  *
