 Q-Chem 5.4, Q-Chem, Inc., Pleasanton, CA (2021)
 Q-Chem 5.4.0 for Intel X86 EM64T Linux

User input:
--------------------------------------------------------------
$molecule
0 1
C	-0.592321	-0.237129	0.015606
C	0.155579	0.194671	1.115006
C	1.354079	0.886571	0.792306
H	-0.163821	0.010271	2.151706
C	1.545179	0.996871	-0.596894
S	0.223879	0.234071	-1.471194
C	2.296179	1.430471	1.830206
H	1.927479	1.217571	2.852306
H	2.416579	2.530371	1.741806
H	3.308979	0.984671	1.741806
C	-0.592321	-1.677829	0.015606
H	0.487679	-1.677529	0.015706
H	-0.592421	-2.381629	0.834806
H	-0.592321	-2.196729	-0.931494
H	2.367279	1.471471	-1.145994
$end

$rem
JOBTYPE		SP
EXCHANGE	HF
CORRELATION	pRIMP2
BASIS		cc-pvtz
METHOD		rimp2
AUX_BASIS	rimp2-cc-pvtz
SOLVENT_METHOD	PCM
PURECART	11111
SYMMETRY	false
MEM_TOTAL	110000
SCF_CONVERGENCE = 6
THRESH=10
$end

$solvent
dielectric 4.90
$end
--------------------------------------------------------------

             Standard Nuclear Orientation (Angstroms)
    I     Atom           X                Y                Z
 ----------------------------------------------------------------
    1      C      -0.5923210000    -0.2371290000     0.0156060000
    2      C       0.1555790000     0.1946710000     1.1150060000
    3      C       1.3540790000     0.8865710000     0.7923060000
    4      H      -0.1638210000     0.0102710000     2.1517060000
    5      C       1.5451790000     0.9968710000    -0.5968940000
    6      S       0.2238790000     0.2340710000    -1.4711940000
    7      C       2.2961790000     1.4304710000     1.8302060000
    8      H       1.9274790000     1.2175710000     2.8523060000
    9      H       2.4165790000     2.5303710000     1.7418060000
   10      H       3.3089790000     0.9846710000     1.7418060000
   11      C      -0.5923210000    -1.6778290000     0.0156060000
   12      H       0.4876790000    -1.6775290000     0.0157060000
   13      H      -0.5924210000    -2.3816290000     0.8348060000
   14      H      -0.5923210000    -2.1967290000    -0.9314940000
   15      H       2.3672790000     1.4714710000    -1.1459940000
 ----------------------------------------------------------------

   11    -629.3486289060      4.83e-07  Convergence criterion met
 Total energy in the final basis set =     -629.3486289060
        RIMP2         total energy =      -630.5405950372 a.u.

                    Orbital Energies (a.u.)
 --------------------------------------------------------------

 Alpha MOs
 -- Occupied --
-91.9759 -11.2794 -11.2571 -11.2513 -11.2439 -11.2293 -11.2147  -8.9770
 -6.6578  -6.6570  -6.6567  -1.1790  -1.0599  -0.9987  -0.9380  -0.8804
 -0.7528  -0.7300  -0.6475  -0.5923  -0.5818  -0.5670  -0.5541  -0.5459
 -0.5090  -0.4935  -0.4625  -0.4364  -0.3381  -0.2889

          Ground-State Mulliken Net Atomic Charges

     Atom                 Charge (a.u.)
  ----------------------------------------
      1 C                    -0.080971
      2 C                    -0.148411
      3 C                    -0.012939
      4 H                     0.181617
      5 C                    -0.205217
      6 S                     0.018878
      7 C                    -0.268005
      8 H                     0.102834
      9 H                     0.107616
     10 H                     0.104391
     11 C                    -0.358017
     12 H                     0.104626
     13 H                     0.136848
     14 H                     0.118781
     15 H                     0.197969
  ----------------------------------------
  Sum of atomic charges =     0.000000

                    Cartesian Multipole Moments
 -----------------------------------------------------------------
    Charge (ESU x 10^10)
                -0.0000
    Dipole Moment (Debye)
         X       2.7045      Y      -0.1428      Z       1.6283
       Tot       3.1600
    Quadrupole Moments (Debye-Ang)
        XX     -48.9656     XY       3.8450     YY     -49.7959
        XZ      -0.1915     YZ      -0.2314     ZZ     -47.6365

 Total job time:  181.88s(wall), 180.26s(cpu)
        *  Thank you very much for using Q-Chem.  Have a nice day.  *
