 Q-Chem 5.4, Q-Chem, Inc., Pleasanton, CA (2021)
 Q-Chem 5.4.0 for Intel X86 EM64T Linux

User input:
--------------------------------------------------------------
$molecule
0 1
C	-0.227333	-0.535395	0.016441
C	0.068067	0.276105	1.115841
C	0.541367	1.576505	0.793141
H	-0.058033	-0.070395	2.152541
C	0.616867	1.783905	-0.596059
S	0.094967	0.350205	-1.470359
C	0.913467	2.598705	1.831041
H	0.767867	2.198705	2.853141
H	0.298667	3.518705	1.742641
H	1.975867	2.908305	1.742641
C	-0.227333	-1.976095	0.016441
H	-1.290933	-1.976295	-0.171259
H	-0.369633	-2.679895	0.823141
H	-0.062833	-2.494995	-0.916259
H	0.941567	2.675905	-1.145159
$end

$rem
JOBTYPE		SP
EXCHANGE	HF
CORRELATION	pRIMP2
BASIS		cc-pvtz
METHOD		rimp2
AUX_BASIS	rimp2-cc-pvtz
SOLVENT_METHOD	PCM
PURECART	11111
SYMMETRY	false
MEM_TOTAL	110000
SCF_CONVERGENCE = 6
THRESH=10
$end

$solvent
dielectric 4.90
$end
--------------------------------------------------------------

   10    -629.4120061400      6.35e-07  Convergence criterion met
 Total energy in the final basis set =     -629.4120061400
        RIMP2         total energy =      -630.5900369055 a.u.
 Total job time:  159.47s(wall), 157.26s(cpu)
        *  Thank you very much for using Q-Chem.  Have a nice day.  *
 Q-Chem 5.4, Q-Chem, Inc., Pleasanton, CA (2021)
 Q-Chem 5.4.0 for Intel X86 EM64T Linux

User input:
--------------------------------------------------------------
$molecule
0 1
C	-0.227333	-0.535395	0.016441
C	0.068067	0.276105	1.115841
C	0.541367	1.576505	0.793141
H	-0.058033	-0.070395	2.152541
C	0.616867	1.783905	-0.596059
S	0.094967	0.350205	-1.470359
C	0.913467	2.598705	1.831041
H	0.767867	2.198705	2.853141
H	0.298667	3.518705	1.742641
H	1.975867	2.908305	1.742641
C	-0.227333	-1.976095	0.016441
H	-1.290933	-1.976295	-0.171259
H	-0.369633	-2.679895	0.823141
H	-0.062833	-2.494995	-0.916259
H	0.941567	2.675905	-1.145159
$end

$rem
JOBTYPE		SP
EXCHANGE	HF
CORRELATION	pRIMP2
BASIS		cc-pvtz
METHOD		rimp2
AUX_BASIS	rimp2-cc-pvtz
SOLVENT_METHOD	PCM
PURECART	11111
SYMMETRY	false
MEM_TOTAL	110000
SCF_CONVERGENCE = 6
THRESH=10
$end

$solvent
dielectric 4.90
$end
--------------------------------------------------------------

             Standard Nuclear Orientation (Angstroms)
    I     Atom           X                Y                Z
 ----------------------------------------------------------------
    1      C      -0.2273330000    -0.5353950000     0.0164410000
    2      C       0.0680670000     0.2761050000     1.1158410000
    3      C       0.5413670000     1.5765050000     0.7931410000
    4      H      -0.0580330000    -0.0703950000     2.1525410000
    5      C       0.6168670000     1.7839050000    -0.5960590000
    6      S       0.0949670000     0.3502050000    -1.4703590000
    7      C       0.9134670000     2.5987050000     1.8310410000
    8      H       0.7678670000     2.1987050000     2.8531410000
    9      H       0.2986670000     3.5187050000     1.7426410000
   10      H       1.9758670000     2.9083050000     1.7426410000
   11      C      -0.2273330000    -1.9760950000     0.0164410000
   12      H      -1.2909330000    -1.9762950000    -0.1712590000
   13      H      -0.3696330000    -2.6798950000     0.8231410000
   14      H      -0.0628330000    -2.4949950000    -0.9162590000
   15      H       0.9415670000     2.6759050000    -1.1451590000
 ----------------------------------------------------------------

   10    -629.4120061400      6.35e-07  Convergence criterion met
 Total energy in the final basis set =     -629.4120061400
        RIMP2         total energy =      -630.5900369055 a.u.

                    Orbital Energies (a.u.)
 --------------------------------------------------------------

 Alpha MOs
 -- Occupied --
-91.9783 -11.2805 -11.2520 -11.2469 -11.2264 -11.2250 -11.2186  -8.9782
 -6.6592  -6.6586  -6.6580  -1.1606  -1.0554  -0.9964  -0.9431  -0.8823
 -0.7446  -0.7190  -0.6479  -0.5862  -0.5733  -0.5685  -0.5533  -0.5461
 -0.5096  -0.4934  -0.4588  -0.4571  -0.3382  -0.2877

          Ground-State Mulliken Net Atomic Charges

     Atom                 Charge (a.u.)
  ----------------------------------------
      1 C                     0.035711
      2 C                    -0.284437
      3 C                     0.046673
      4 H                     0.178275
      5 C                    -0.273044
      6 S                     0.001040
      7 C                    -0.272182
      8 H                     0.101370
      9 H                     0.107103
     10 H                     0.106785
     11 C                    -0.378804
     12 H                     0.135006
     13 H                     0.162693
     14 H                     0.140059
     15 H                     0.193752
  ----------------------------------------
  Sum of atomic charges =     0.000000

                    Cartesian Multipole Moments
 -----------------------------------------------------------------
    Charge (ESU x 10^10)
                -0.0000
    Dipole Moment (Debye)
         X      -0.2817      Y      -0.5497      Z       1.3012
       Tot       1.4404
    Quadrupole Moments (Debye-Ang)
        XX     -53.1511     XY       4.3668     YY     -42.9921
        XZ      -0.0477     YZ       0.3724     ZZ     -48.4704

 Total job time:  157.35s(wall), 156.24s(cpu)
        *  Thank you very much for using Q-Chem.  Have a nice day.  *
