 Q-Chem 5.4, Q-Chem, Inc., Pleasanton, CA (2021)
 Q-Chem 5.4.0 for Intel X86 EM64T Linux

User input:
--------------------------------------------------------------
$molecule
0 1
C	-0.176693	-0.553189	0.010276
C	0.046807	0.281011	1.109676
C	0.405007	1.617711	0.786976
H	-0.048593	-0.075289	2.146376
C	0.462207	1.830811	-0.602224
S	0.067207	0.357111	-1.476524
C	0.686607	2.668411	1.824876
H	0.576407	2.257311	2.846976
H	-0.005993	3.531411	1.736476
H	1.717907	3.069411	1.736476
C	-0.176693	-1.993889	0.010276
H	0.192607	-1.994089	1.025176
H	0.593107	-2.697689	-0.269824
H	-1.066693	-2.512789	0.334176
H	0.707907	2.747711	-1.151324
$end

$rem
JOBTYPE		SP
EXCHANGE	HF
CORRELATION	pRIMP2
BASIS		cc-pvtz
METHOD		rimp2
AUX_BASIS	rimp2-cc-pvtz
SOLVENT_METHOD	PCM
PURECART	11111
SYMMETRY	false
MEM_TOTAL	110000
SCF_CONVERGENCE = 6
THRESH=10
$end

$solvent
dielectric 4.90
$end
--------------------------------------------------------------

             Standard Nuclear Orientation (Angstroms)
    I     Atom           X                Y                Z
 ----------------------------------------------------------------
    1      C      -0.1766930000    -0.5531890000     0.0102760000
    2      C       0.0468070000     0.2810110000     1.1096760000
    3      C       0.4050070000     1.6177110000     0.7869760000
    4      H      -0.0485930000    -0.0752890000     2.1463760000
    5      C       0.4622070000     1.8308110000    -0.6022240000
    6      S       0.0672070000     0.3571110000    -1.4765240000
    7      C       0.6866070000     2.6684110000     1.8248760000
    8      H       0.5764070000     2.2573110000     2.8469760000
    9      H      -0.0059930000     3.5314110000     1.7364760000
   10      H       1.7179070000     3.0694110000     1.7364760000
   11      C      -0.1766930000    -1.9938890000     0.0102760000
   12      H       0.1926070000    -1.9940890000     1.0251760000
   13      H       0.5931070000    -2.6976890000    -0.2698240000
   14      H      -1.0666930000    -2.5127890000     0.3341760000
   15      H       0.7079070000     2.7477110000    -1.1513240000
 ----------------------------------------------------------------

   10    -629.4184928281      5.06e-07  Convergence criterion met
 Total energy in the final basis set =     -629.4184928281
        RIMP2         total energy =      -630.5975223556 a.u.

                    Orbital Energies (a.u.)
 --------------------------------------------------------------

 Alpha MOs
 -- Occupied --
-91.9757 -11.2771 -11.2569 -11.2472 -11.2334 -11.2274 -11.2156  -8.9757
 -6.6566  -6.6560  -6.6555  -1.1616  -1.0541  -0.9996  -0.9390  -0.8842
 -0.7423  -0.7240  -0.6481  -0.5910  -0.5774  -0.5689  -0.5579  -0.5421
 -0.5113  -0.4815  -0.4682  -0.4403  -0.3369  -0.3015

          Ground-State Mulliken Net Atomic Charges

     Atom                 Charge (a.u.)
  ----------------------------------------
      1 C                     0.053021
      2 C                    -0.268332
      3 C                     0.032466
      4 H                     0.176064
      5 C                    -0.253078
      6 S                    -0.004969
      7 C                    -0.272931
      8 H                     0.101130
      9 H                     0.107155
     10 H                     0.107075
     11 C                    -0.376844
     12 H                     0.128236
     13 H                     0.151844
     14 H                     0.126595
     15 H                     0.192568
  ----------------------------------------
  Sum of atomic charges =     0.000000

                    Cartesian Multipole Moments
 -----------------------------------------------------------------
    Charge (ESU x 10^10)
                -0.0000
    Dipole Moment (Debye)
         X       0.5997      Y      -0.1234      Z       2.1186
       Tot       2.2053
    Quadrupole Moments (Debye-Ang)
        XX     -53.3082     XY       1.5481     YY     -42.8881
        XZ      -0.2334     YZ      -0.9766     ZZ     -48.8448

 Total job time:  156.71s(wall), 155.07s(cpu)
        *  Thank you very much for using Q-Chem.  Have a nice day.  *
