 Q-Chem 5.4, Q-Chem, Inc., Pleasanton, CA (2021)
 Q-Chem 5.4.0 for Intel X86 EM64T Linux

User input:
--------------------------------------------------------------
$molecule
0 1
C	-0.522990	-0.333974	0.018590
C	0.138610	0.221126	1.117990
C	1.198710	1.110626	0.795290
H	-0.143890	-0.015974	2.154690
C	1.367810	1.252426	-0.593910
S	0.198910	0.271726	-1.468210
C	2.032010	1.809826	1.833190
H	1.705910	1.536226	2.855290
H	1.959610	2.914026	1.744790
H	3.106810	1.546726	1.744790
C	-0.522990	-1.774674	0.018590
H	0.304410	-1.774374	-0.675510
H	0.003510	-2.478474	0.646190
H	-1.131790	-2.293574	-0.706910
H	2.094910	1.862626	-1.143010
$end

$rem
JOBTYPE		SP
EXCHANGE	HF
CORRELATION	pRIMP2
BASIS		cc-pvtz
METHOD		rimp2
AUX_BASIS	rimp2-cc-pvtz
SOLVENT_METHOD	PCM
PURECART	11111
SYMMETRY	false
MEM_TOTAL	110000
SCF_CONVERGENCE = 6
THRESH=10
$end

$solvent
dielectric 4.90
$end
--------------------------------------------------------------

             Standard Nuclear Orientation (Angstroms)
    I     Atom           X                Y                Z
 ----------------------------------------------------------------
    1      C      -0.5229900000    -0.3339740000     0.0185900000
    2      C       0.1386100000     0.2211260000     1.1179900000
    3      C       1.1987100000     1.1106260000     0.7952900000
    4      H      -0.1438900000    -0.0159740000     2.1546900000
    5      C       1.3678100000     1.2524260000    -0.5939100000
    6      S       0.1989100000     0.2717260000    -1.4682100000
    7      C       2.0320100000     1.8098260000     1.8331900000
    8      H       1.7059100000     1.5362260000     2.8552900000
    9      H       1.9596100000     2.9140260000     1.7447900000
   10      H       3.1068100000     1.5467260000     1.7447900000
   11      C      -0.5229900000    -1.7746740000     0.0185900000
   12      H       0.3044100000    -1.7743740000    -0.6755100000
   13      H       0.0035100000    -2.4784740000     0.6461900000
   14      H      -1.1317900000    -2.2935740000    -0.7069100000
   15      H       2.0949100000     1.8626260000    -1.1430100000
 ----------------------------------------------------------------

   10    -629.3664662613      6.06e-07  Convergence criterion met
 Total energy in the final basis set =     -629.3664662613
        RIMP2         total energy =      -630.5536674197 a.u.

                    Orbital Energies (a.u.)
 --------------------------------------------------------------

 Alpha MOs
 -- Occupied --
-91.9710 -11.2717 -11.2614 -11.2486 -11.2430 -11.2283 -11.2104  -8.9726
 -6.6534  -6.6526  -6.6523  -1.1718  -1.0580  -0.9948  -0.9430  -0.8788
 -0.7520  -0.7253  -0.6461  -0.5854  -0.5838  -0.5654  -0.5529  -0.5473
 -0.5148  -0.4846  -0.4612  -0.4371  -0.3394  -0.2911

          Ground-State Mulliken Net Atomic Charges

     Atom                 Charge (a.u.)
  ----------------------------------------
      1 C                    -0.029260
      2 C                    -0.204808
      3 C                     0.008751
      4 H                     0.182194
      5 C                    -0.215784
      6 S                    -0.007140
      7 C                    -0.269079
      8 H                     0.101778
      9 H                     0.107842
     10 H                     0.105829
     11 C                    -0.376551
     12 H                     0.136083
     13 H                     0.150662
     14 H                     0.113693
     15 H                     0.195791
  ----------------------------------------
  Sum of atomic charges =     0.000000

                    Cartesian Multipole Moments
 -----------------------------------------------------------------
    Charge (ESU x 10^10)
                -0.0000
    Dipole Moment (Debye)
         X       2.2241      Y      -0.0337      Z       1.3267
       Tot       2.5900
    Quadrupole Moments (Debye-Ang)
        XX     -49.8806     XY       3.5798     YY     -48.2514
        XZ       0.2699     YZ       0.8204     ZZ     -48.1985

 Total job time:  162.55s(wall), 160.77s(cpu)
        *  Thank you very much for using Q-Chem.  Have a nice day.  *
