 Q-Chem 5.4, Q-Chem, Inc., Pleasanton, CA (2021)
 Q-Chem 5.4.0 for Intel X86 EM64T Linux

User input:
--------------------------------------------------------------
$molecule
0 1
C	-0.448981	-0.418305	0.014458
C	0.106119	0.243195	1.113858
C	0.995719	1.303395	0.791158
H	-0.130881	-0.039305	2.150558
C	1.137619	1.472395	-0.598042
S	0.156819	0.303595	-1.472342
C	1.694919	2.136595	1.829058
H	1.421319	1.810595	2.851158
H	1.431919	3.211395	1.740658
H	2.799119	2.064195	1.740658
C	-0.198781	-1.837105	0.014458
H	-1.262481	-2.024305	0.014358
H	-0.076581	-2.530205	-0.804742
H	-0.108681	-2.348205	0.961558
H	1.747719	2.199495	-1.147142
$end

$rem
JOBTYPE		SP
EXCHANGE	HF
CORRELATION	pRIMP2
BASIS		cc-pvtz
METHOD		rimp2
AUX_BASIS	rimp2-cc-pvtz
SOLVENT_METHOD	PCM
PURECART	11111
SYMMETRY	false
MEM_TOTAL	110000
SCF_CONVERGENCE = 6
THRESH=10
$end

$solvent
dielectric 4.90
$end
--------------------------------------------------------------

             Standard Nuclear Orientation (Angstroms)
    I     Atom           X                Y                Z
 ----------------------------------------------------------------
    1      C      -0.4489810000    -0.4183050000     0.0144580000
    2      C       0.1061190000     0.2431950000     1.1138580000
    3      C       0.9957190000     1.3033950000     0.7911580000
    4      H      -0.1308810000    -0.0393050000     2.1505580000
    5      C       1.1376190000     1.4723950000    -0.5980420000
    6      S       0.1568190000     0.3035950000    -1.4723420000
    7      C       1.6949190000     2.1365950000     1.8290580000
    8      H       1.4213190000     1.8105950000     2.8511580000
    9      H       1.4319190000     3.2113950000     1.7406580000
   10      H       2.7991190000     2.0641950000     1.7406580000
   11      C      -0.1987810000    -1.8371050000     0.0144580000
   12      H      -1.2624810000    -2.0243050000     0.0143580000
   13      H      -0.0765810000    -2.5302050000    -0.8047420000
   14      H      -0.1086810000    -2.3482050000     0.9615580000
   15      H       1.7477190000     2.1994950000    -1.1471420000
 ----------------------------------------------------------------

   11    -629.3602500900      4.19e-07  Convergence criterion met
 Total energy in the final basis set =     -629.3602500900
        RIMP2         total energy =      -630.5501441887 a.u.

                    Orbital Energies (a.u.)
 --------------------------------------------------------------

 Alpha MOs
 -- Occupied --
-91.9735 -11.2690 -11.2569 -11.2481 -11.2414 -11.2277 -11.2076  -8.9741
 -6.6550  -6.6542  -6.6538  -1.1667  -1.0539  -0.9966  -0.9397  -0.8822
 -0.7472  -0.7256  -0.6414  -0.5852  -0.5781  -0.5691  -0.5516  -0.5430
 -0.5157  -0.4928  -0.4576  -0.4309  -0.3360  -0.2838

          Ground-State Mulliken Net Atomic Charges

     Atom                 Charge (a.u.)
  ----------------------------------------
      1 C                    -0.045421
      2 C                    -0.198434
      3 C                     0.017543
      4 H                     0.181874
      5 C                    -0.222416
      6 S                     0.006354
      7 C                    -0.269344
      8 H                     0.101523
      9 H                     0.106848
     10 H                     0.105063
     11 C                    -0.390991
     12 H                     0.125697
     13 H                     0.156320
     14 H                     0.130949
     15 H                     0.194434
  ----------------------------------------
  Sum of atomic charges =     0.000000

                    Cartesian Multipole Moments
 -----------------------------------------------------------------
    Charge (ESU x 10^10)
                -0.0000
    Dipole Moment (Debye)
         X       1.0206      Y       0.1024      Z       1.6450
       Tot       1.9386
    Quadrupole Moments (Debye-Ang)
        XX     -51.0902     XY       5.2142     YY     -46.2903
        XZ      -0.1070     YZ       0.2366     ZZ     -47.8917

 Total job time:  173.99s(wall), 170.05s(cpu)
        *  Thank you very much for using Q-Chem.  Have a nice day.  *
