 Q-Chem 5.4, Q-Chem, Inc., Pleasanton, CA (2021)
 Q-Chem 5.4.0 for Intel X86 EM64T Linux

User input:
--------------------------------------------------------------
$molecule
0 1
C	-0.336253	-0.485419	0.011118
C	0.095547	0.262481	1.110518
C	0.787547	1.460981	0.787818
H	-0.088853	-0.056919	2.147218
C	0.897847	1.652081	-0.601382
S	0.134947	0.330681	-1.475682
C	1.331447	2.402981	1.825718
H	1.118647	2.034381	2.847818
H	0.885747	3.415781	1.737318
H	2.431447	2.523381	1.737318
C	-0.336253	-1.926119	0.011118
H	-0.876353	-1.926319	0.946318
H	0.373147	-2.629919	0.420718
H	-1.156453	-2.445019	-0.462482
H	1.372547	2.474081	-1.150482
$end

$rem
JOBTYPE		SP
EXCHANGE	HF
CORRELATION	pRIMP2
BASIS		cc-pvtz
METHOD		rimp2
AUX_BASIS	rimp2-cc-pvtz
SOLVENT_METHOD	PCM
PURECART	11111
SYMMETRY	false
MEM_TOTAL	110000
SCF_CONVERGENCE = 6
THRESH=10
$end

$solvent
dielectric 4.90
$end
--------------------------------------------------------------

             Standard Nuclear Orientation (Angstroms)
    I     Atom           X                Y                Z
 ----------------------------------------------------------------
    1      C      -0.3362530000    -0.4854190000     0.0111180000
    2      C       0.0955470000     0.2624810000     1.1105180000
    3      C       0.7875470000     1.4609810000     0.7878180000
    4      H      -0.0888530000    -0.0569190000     2.1472180000
    5      C       0.8978470000     1.6520810000    -0.6013820000
    6      S       0.1349470000     0.3306810000    -1.4756820000
    7      C       1.3314470000     2.4029810000     1.8257180000
    8      H       1.1186470000     2.0343810000     2.8478180000
    9      H       0.8857470000     3.4157810000     1.7373180000
   10      H       2.4314470000     2.5233810000     1.7373180000
   11      C      -0.3362530000    -1.9261190000     0.0111180000
   12      H      -0.8763530000    -1.9263190000     0.9463180000
   13      H       0.3731470000    -2.6299190000     0.4207180000
   14      H      -1.1564530000    -2.4450190000    -0.4624820000
   15      H       1.3725470000     2.4740810000    -1.1504820000
 ----------------------------------------------------------------

   10    -629.4060640250      5.33e-07  Convergence criterion met
 Total energy in the final basis set =     -629.4060640250
        RIMP2         total energy =      -630.5881505777 a.u.

                    Orbital Energies (a.u.)
 --------------------------------------------------------------

 Alpha MOs
 -- Occupied --
-91.9737 -11.2692 -11.2628 -11.2478 -11.2380 -11.2278 -11.2138  -8.9741
 -6.6550  -6.6543  -6.6539  -1.1629  -1.0536  -0.9989  -0.9392  -0.8842
 -0.7435  -0.7251  -0.6477  -0.5868  -0.5789  -0.5667  -0.5579  -0.5423
 -0.5139  -0.4839  -0.4638  -0.4352  -0.3377  -0.3007

          Ground-State Mulliken Net Atomic Charges

     Atom                 Charge (a.u.)
  ----------------------------------------
      1 C                     0.008650
      2 C                    -0.252260
      3 C                     0.031742
      4 H                     0.178866
      5 C                    -0.239459
      6 S                    -0.002441
      7 C                    -0.270785
      8 H                     0.101358
      9 H                     0.106863
     10 H                     0.106705
     11 C                    -0.362736
     12 H                     0.118287
     13 H                     0.152673
     14 H                     0.128982
     15 H                     0.193553
  ----------------------------------------
  Sum of atomic charges =     0.000000

                    Cartesian Multipole Moments
 -----------------------------------------------------------------
    Charge (ESU x 10^10)
                -0.0000
    Dipole Moment (Debye)
         X       0.5693      Y       0.0698      Z       2.1250
       Tot       2.2010
    Quadrupole Moments (Debye-Ang)
        XX     -51.5985     XY       4.5032     YY     -44.7025
        XZ       0.1609     YZ      -1.0133     ZZ     -48.6934

 Total job time:  157.46s(wall), 154.50s(cpu)
        *  Thank you very much for using Q-Chem.  Have a nice day.  *
