 Q-Chem 5.4, Q-Chem, Inc., Pleasanton, CA (2021)
 Q-Chem 5.4.0 for Intel X86 EM64T Linux

User input:
--------------------------------------------------------------
$molecule
0 1
C	-0.114889	-0.566010	0.018946
C	0.035111	0.284490	1.118346
C	0.275411	1.647390	0.795646
H	-0.028989	-0.078710	2.155046
C	0.313811	1.864690	-0.593554
S	0.048811	0.362090	-1.467854
C	0.464311	2.718590	1.833546
H	0.390411	2.299390	2.855646
H	-0.300889	3.517890	1.745146
H	1.456811	3.207890	1.745146
C	-0.114889	-2.006710	0.018946
H	-0.654789	-2.006410	-0.916454
H	0.594611	-2.710510	-0.390554
H	-0.935089	-2.525610	0.492546
H	0.478611	2.799390	-1.142654
$end

$rem
JOBTYPE		SP
EXCHANGE	HF
CORRELATION	pRIMP2
BASIS		cc-pvtz
METHOD		rimp2
AUX_BASIS	rimp2-cc-pvtz
SOLVENT_METHOD	PCM
PURECART	11111
SYMMETRY	false
MEM_TOTAL	110000
SCF_CONVERGENCE = 6
THRESH=10
$end

$solvent
dielectric 4.90
$end
--------------------------------------------------------------

             Standard Nuclear Orientation (Angstroms)
    I     Atom           X                Y                Z
 ----------------------------------------------------------------
    1      C      -0.1148890000    -0.5660100000     0.0189460000
    2      C       0.0351110000     0.2844900000     1.1183460000
    3      C       0.2754110000     1.6473900000     0.7956460000
    4      H      -0.0289890000    -0.0787100000     2.1550460000
    5      C       0.3138110000     1.8646900000    -0.5935540000
    6      S       0.0488110000     0.3620900000    -1.4678540000
    7      C       0.4643110000     2.7185900000     1.8335460000
    8      H       0.3904110000     2.2993900000     2.8556460000
    9      H      -0.3008890000     3.5178900000     1.7451460000
   10      H       1.4568110000     3.2078900000     1.7451460000
   11      C      -0.1148890000    -2.0067100000     0.0189460000
   12      H      -0.6547890000    -2.0064100000    -0.9164540000
   13      H       0.5946110000    -2.7105100000    -0.3905540000
   14      H      -0.9350890000    -2.5256100000     0.4925460000
   15      H       0.4786110000     2.7993900000    -1.1426540000
 ----------------------------------------------------------------

   10    -629.4192932400      5.51e-07  Convergence criterion met
 Total energy in the final basis set =     -629.4192932400
        RIMP2         total energy =      -630.5971392462 a.u.

                    Orbital Energies (a.u.)
 --------------------------------------------------------------

 Alpha MOs
 -- Occupied --
-91.9797 -11.2759 -11.2571 -11.2471 -11.2290 -11.2268 -11.2165  -8.9795
 -6.6605  -6.6599  -6.6593  -1.1609  -1.0550  -0.9957  -0.9457  -0.8820
 -0.7473  -0.7188  -0.6475  -0.5909  -0.5755  -0.5681  -0.5518  -0.5472
 -0.5097  -0.4850  -0.4647  -0.4478  -0.3385  -0.3000

          Ground-State Mulliken Net Atomic Charges

     Atom                 Charge (a.u.)
  ----------------------------------------
      1 C                     0.037078
      2 C                    -0.256985
      3 C                     0.033506
      4 H                     0.180475
      5 C                    -0.254801
      6 S                    -0.003086
      7 C                    -0.273388
      8 H                     0.101668
      9 H                     0.106895
     10 H                     0.106953
     11 C                    -0.364354
     12 H                     0.114612
     13 H                     0.141556
     14 H                     0.135314
     15 H                     0.194556
  ----------------------------------------
  Sum of atomic charges =     0.000000

                    Cartesian Multipole Moments
 -----------------------------------------------------------------
    Charge (ESU x 10^10)
                -0.0000
    Dipole Moment (Debye)
         X      -0.0779      Y      -0.0623      Z       0.9371
       Tot       0.9424
    Quadrupole Moments (Debye-Ang)
        XX     -53.5547     XY       2.1800     YY     -42.3784
        XZ      -0.2088     YZ       1.3903     ZZ     -48.7563

 Total job time:  156.34s(wall), 154.96s(cpu)
        *  Thank you very much for using Q-Chem.  Have a nice day.  *
