 Q-Chem 5.4, Q-Chem, Inc., Pleasanton, CA (2021)
 Q-Chem 5.4.0 for Intel X86 EM64T Linux

User input:
--------------------------------------------------------------
$molecule
0 1
C	-0.115884	-0.566007	0.019522
C	0.034116	0.284493	1.118922
C	0.274416	1.647393	0.796222
H	-0.029984	-0.078707	2.155622
C	0.312816	1.864693	-0.592978
S	0.047816	0.362093	-1.467278
C	0.463316	2.718593	1.834122
H	0.389416	2.299393	2.856222
H	-0.301884	3.517893	1.745722
H	1.455816	3.207893	1.745722
C	-0.115884	-2.006707	0.019522
H	-0.655784	-2.006907	-0.915878
H	-0.825384	-2.710507	0.429022
H	0.704316	-2.525607	-0.454078
H	0.477616	2.799393	-1.142078
$end

$rem
JOBTYPE		SP
EXCHANGE	HF
CORRELATION	pRIMP2
BASIS		cc-pvtz
METHOD		rimp2
AUX_BASIS	rimp2-cc-pvtz
SOLVENT_METHOD	PCM
PURECART	11111
SYMMETRY	false
MEM_TOTAL	110000
SCF_CONVERGENCE = 6
THRESH=10
$end

$solvent
dielectric 4.90
$end
--------------------------------------------------------------

   10    -629.4195242036      5.64e-07  Convergence criterion met
 Total energy in the final basis set =     -629.4195242036
        RIMP2         total energy =      -630.5970009422 a.u.
 Total job time:  157.32s(wall), 155.19s(cpu)
        *  Thank you very much for using Q-Chem.  Have a nice day.  *
 Q-Chem 5.4, Q-Chem, Inc., Pleasanton, CA (2021)
 Q-Chem 5.4.0 for Intel X86 EM64T Linux

User input:
--------------------------------------------------------------
$molecule
0 1
C	-0.115884	-0.566007	0.019522
C	0.034116	0.284493	1.118922
C	0.274416	1.647393	0.796222
H	-0.029984	-0.078707	2.155622
C	0.312816	1.864693	-0.592978
S	0.047816	0.362093	-1.467278
C	0.463316	2.718593	1.834122
H	0.389416	2.299393	2.856222
H	-0.301884	3.517893	1.745722
H	1.455816	3.207893	1.745722
C	-0.115884	-2.006707	0.019522
H	-0.655784	-2.006907	-0.915878
H	-0.825384	-2.710507	0.429022
H	0.704316	-2.525607	-0.454078
H	0.477616	2.799393	-1.142078
$end

$rem
JOBTYPE		SP
EXCHANGE	HF
CORRELATION	pRIMP2
BASIS		cc-pvtz
METHOD		rimp2
AUX_BASIS	rimp2-cc-pvtz
SOLVENT_METHOD	PCM
PURECART	11111
SYMMETRY	false
MEM_TOTAL	110000
SCF_CONVERGENCE = 6
THRESH=10
$end

$solvent
dielectric 4.90
$end
--------------------------------------------------------------

             Standard Nuclear Orientation (Angstroms)
    I     Atom           X                Y                Z
 ----------------------------------------------------------------
    1      C      -0.1158840000    -0.5660070000     0.0195220000
    2      C       0.0341160000     0.2844930000     1.1189220000
    3      C       0.2744160000     1.6473930000     0.7962220000
    4      H      -0.0299840000    -0.0787070000     2.1556220000
    5      C       0.3128160000     1.8646930000    -0.5929780000
    6      S       0.0478160000     0.3620930000    -1.4672780000
    7      C       0.4633160000     2.7185930000     1.8341220000
    8      H       0.3894160000     2.2993930000     2.8562220000
    9      H      -0.3018840000     3.5178930000     1.7457220000
   10      H       1.4558160000     3.2078930000     1.7457220000
   11      C      -0.1158840000    -2.0067070000     0.0195220000
   12      H      -0.6557840000    -2.0069070000    -0.9158780000
   13      H      -0.8253840000    -2.7105070000     0.4290220000
   14      H       0.7043160000    -2.5256070000    -0.4540780000
   15      H       0.4776160000     2.7993930000    -1.1420780000
 ----------------------------------------------------------------

   10    -629.4195242036      5.64e-07  Convergence criterion met
 Total energy in the final basis set =     -629.4195242036
        RIMP2         total energy =      -630.5970009422 a.u.

                    Orbital Energies (a.u.)
 --------------------------------------------------------------

 Alpha MOs
 -- Occupied --
-91.9802 -11.2765 -11.2566 -11.2470 -11.2279 -11.2267 -11.2168  -8.9800
 -6.6610  -6.6605  -6.6598  -1.1609  -1.0552  -0.9955  -0.9459  -0.8817
 -0.7472  -0.7185  -0.6481  -0.5911  -0.5750  -0.5658  -0.5536  -0.5472
 -0.5089  -0.4865  -0.4649  -0.4480  -0.3387  -0.2995

          Ground-State Mulliken Net Atomic Charges

     Atom                 Charge (a.u.)
  ----------------------------------------
      1 C                     0.041692
      2 C                    -0.263586
      3 C                     0.036785
      4 H                     0.180168
      5 C                    -0.256523
      6 S                    -0.002981
      7 C                    -0.273471
      8 H                     0.101678
      9 H                     0.106911
     10 H                     0.106968
     11 C                    -0.369885
     12 H                     0.115454
     13 H                     0.156138
     14 H                     0.125858
     15 H                     0.194794
  ----------------------------------------
  Sum of atomic charges =     0.000000

                    Cartesian Multipole Moments
 -----------------------------------------------------------------
    Charge (ESU x 10^10)
                -0.0000
    Dipole Moment (Debye)
         X      -0.0584      Y      -0.1037      Z       0.9095
       Tot       0.9173
    Quadrupole Moments (Debye-Ang)
        XX     -53.5488     XY       2.3665     YY     -42.3310
        XZ      -0.1942     YZ       1.2675     ZZ     -48.7837

 Total job time:  155.40s(wall), 154.33s(cpu)
        *  Thank you very much for using Q-Chem.  Have a nice day.  *
