 Q-Chem 5.4, Q-Chem, Inc., Pleasanton, CA (2021)
 Q-Chem 5.4.0 for Intel X86 EM64T Linux

User input:
--------------------------------------------------------------
$molecule
0 1
C	-0.286419	-0.512744	0.019910
C	0.078581	0.269956	1.119310
C	0.663481	1.524156	0.796610
H	-0.077319	-0.064344	2.156010
C	0.756781	1.724156	-0.592590
S	0.111881	0.341356	-1.466890
C	1.123181	2.509956	1.834510
H	0.943281	2.124256	2.856610
H	0.590881	3.480156	1.746110
H	2.208481	2.725856	1.746110
C	-0.286419	-1.953444	0.019910
H	-0.473819	-1.953644	-1.043690
H	-1.093219	-2.657244	0.162110
H	0.646281	-2.472344	-0.144590
H	1.157881	2.584456	-1.141690
$end

$rem
JOBTYPE		SP
EXCHANGE	HF
CORRELATION	pRIMP2
BASIS		cc-pvtz
METHOD		rimp2
AUX_BASIS	rimp2-cc-pvtz
SOLVENT_METHOD	PCM
PURECART	11111
SYMMETRY	false
MEM_TOTAL	110000
SCF_CONVERGENCE = 6
THRESH=10
$end

$solvent
dielectric 4.90
$end
--------------------------------------------------------------

             Standard Nuclear Orientation (Angstroms)
    I     Atom           X                Y                Z
 ----------------------------------------------------------------
    1      C      -0.2864190000    -0.5127440000     0.0199100000
    2      C       0.0785810000     0.2699560000     1.1193100000
    3      C       0.6634810000     1.5241560000     0.7966100000
    4      H      -0.0773190000    -0.0643440000     2.1560100000
    5      C       0.7567810000     1.7241560000    -0.5925900000
    6      S       0.1118810000     0.3413560000    -1.4668900000
    7      C       1.1231810000     2.5099560000     1.8345100000
    8      H       0.9432810000     2.1242560000     2.8566100000
    9      H       0.5908810000     3.4801560000     1.7461100000
   10      H       2.2084810000     2.7258560000     1.7461100000
   11      C      -0.2864190000    -1.9534440000     0.0199100000
   12      H      -0.4738190000    -1.9536440000    -1.0436900000
   13      H      -1.0932190000    -2.6572440000     0.1621100000
   14      H       0.6462810000    -2.4723440000    -0.1445900000
   15      H       1.1578810000     2.5844560000    -1.1416900000
 ----------------------------------------------------------------

   10    -629.4085960583      5.24e-07  Convergence criterion met
 Total energy in the final basis set =     -629.4085960583
        RIMP2         total energy =      -630.5891227238 a.u.

                    Orbital Energies (a.u.)
 --------------------------------------------------------------

 Alpha MOs
 -- Occupied --
-91.9800 -11.2698 -11.2616 -11.2472 -11.2319 -11.2271 -11.2143  -8.9800
 -6.6609  -6.6603  -6.6597  -1.1627  -1.0551  -0.9948  -0.9459  -0.8811
 -0.7488  -0.7198  -0.6466  -0.5917  -0.5756  -0.5661  -0.5531  -0.5473
 -0.5109  -0.4802  -0.4648  -0.4432  -0.3376  -0.3038

          Ground-State Mulliken Net Atomic Charges

     Atom                 Charge (a.u.)
  ----------------------------------------
      1 C                     0.021146
      2 C                    -0.253716
      3 C                     0.041361
      4 H                     0.178761
      5 C                    -0.250899
      6 S                    -0.000838
      7 C                    -0.271724
      8 H                     0.102023
      9 H                     0.106759
     10 H                     0.106251
     11 C                    -0.360630
     12 H                     0.110509
     13 H                     0.147187
     14 H                     0.128413
     15 H                     0.195397
  ----------------------------------------
  Sum of atomic charges =     0.000000

                    Cartesian Multipole Moments
 -----------------------------------------------------------------
    Charge (ESU x 10^10)
                -0.0000
    Dipole Moment (Debye)
         X       0.6464      Y       0.1261      Z       0.9185
       Tot       1.1303
    Quadrupole Moments (Debye-Ang)
        XX     -52.2160     XY       3.7869     YY     -43.9957
        XZ       0.0847     YZ       1.2803     ZZ     -48.7167

 Total job time:  157.77s(wall), 155.63s(cpu)
        *  Thank you very much for using Q-Chem.  Have a nice day.  *
