 Q-Chem 5.4, Q-Chem, Inc., Pleasanton, CA (2021)
 Q-Chem 5.4.0 for Intel X86 EM64T Linux

User input:
--------------------------------------------------------------
$molecule
0 1
C	-0.178497	-0.553191	0.011118
C	0.045003	0.281009	1.110518
C	0.403203	1.617709	0.787818
H	-0.050397	-0.075291	2.147218
C	0.460403	1.830809	-0.601382
S	0.065403	0.357109	-1.475682
C	0.684803	2.668409	1.825718
H	0.574603	2.257309	2.847818
H	-0.007797	3.531409	1.737318
H	1.716103	3.069409	1.737318
C	-0.178497	-1.993891	0.011118
H	0.361403	-1.993591	0.946518
H	-0.887997	-2.697691	0.420618
H	0.641703	-2.512791	-0.462482
H	0.706103	2.747709	-1.150482
$end

$rem
JOBTYPE		SP
EXCHANGE	HF
CORRELATION	pRIMP2
BASIS		cc-pvtz
METHOD		rimp2
AUX_BASIS	rimp2-cc-pvtz
SOLVENT_METHOD	PCM
PURECART	11111
SYMMETRY	false
MEM_TOTAL	110000
SCF_CONVERGENCE = 6
THRESH=10
$end

$solvent
dielectric 4.90
$end
--------------------------------------------------------------

             Standard Nuclear Orientation (Angstroms)
    I     Atom           X                Y                Z
 ----------------------------------------------------------------
    1      C      -0.1784970000    -0.5531910000     0.0111180000
    2      C       0.0450030000     0.2810090000     1.1105180000
    3      C       0.4032030000     1.6177090000     0.7878180000
    4      H      -0.0503970000    -0.0752910000     2.1472180000
    5      C       0.4604030000     1.8308090000    -0.6013820000
    6      S       0.0654030000     0.3571090000    -1.4756820000
    7      C       0.6848030000     2.6684090000     1.8257180000
    8      H       0.5746030000     2.2573090000     2.8478180000
    9      H      -0.0077970000     3.5314090000     1.7373180000
   10      H       1.7161030000     3.0694090000     1.7373180000
   11      C      -0.1784970000    -1.9938910000     0.0111180000
   12      H       0.3614030000    -1.9935910000     0.9465180000
   13      H      -0.8879970000    -2.6976910000     0.4206180000
   14      H       0.6417030000    -2.5127910000    -0.4624820000
   15      H       0.7061030000     2.7477090000    -1.1504820000
 ----------------------------------------------------------------

   10    -629.4191451698      5.19e-07  Convergence criterion met
 Total energy in the final basis set =     -629.4191451698
        RIMP2         total energy =      -630.5976524887 a.u.

                    Orbital Energies (a.u.)
 --------------------------------------------------------------

 Alpha MOs
 -- Occupied --
-91.9767 -11.2786 -11.2554 -11.2471 -11.2310 -11.2272 -11.2164  -8.9767
 -6.6576  -6.6570  -6.6565  -1.1615  -1.0544  -0.9991  -0.9393  -0.8837
 -0.7425  -0.7233  -0.6485  -0.5908  -0.5759  -0.5666  -0.5592  -0.5426
 -0.5098  -0.4842  -0.4681  -0.4442  -0.3367  -0.2990

          Ground-State Mulliken Net Atomic Charges

     Atom                 Charge (a.u.)
  ----------------------------------------
      1 C                     0.054530
      2 C                    -0.268685
      3 C                     0.032685
      4 H                     0.176278
      5 C                    -0.256345
      6 S                    -0.005003
      7 C                    -0.273064
      8 H                     0.101157
      9 H                     0.107245
     10 H                     0.106962
     11 C                    -0.383498
     12 H                     0.132762
     13 H                     0.146976
     14 H                     0.135349
     15 H                     0.192653
  ----------------------------------------
  Sum of atomic charges =     0.000000

                    Cartesian Multipole Moments
 -----------------------------------------------------------------
    Charge (ESU x 10^10)
                -0.0000
    Dipole Moment (Debye)
         X       0.7172      Y      -0.2220      Z       2.0454
       Tot       2.1789
    Quadrupole Moments (Debye-Ang)
        XX     -53.4562     XY       1.4968     YY     -42.8919
        XZ      -0.2881     YZ      -0.9917     ZZ     -48.7518

 Total job time:  156.16s(wall), 155.42s(cpu)
        *  Thank you very much for using Q-Chem.  Have a nice day.  *
