 Q-Chem 5.4, Q-Chem, Inc., Pleasanton, CA (2021)
 Q-Chem 5.4.0 for Intel X86 EM64T Linux

User input:
--------------------------------------------------------------
$molecule
0 1
C	-0.334688	-0.485421	0.016960
C	0.097112	0.262479	1.116360
C	0.789112	1.460979	0.793660
H	-0.087288	-0.056921	2.153060
C	0.899412	1.652079	-0.595540
S	0.136512	0.330679	-1.469840
C	1.333012	2.402979	1.831560
H	1.120212	2.034379	2.853660
H	0.887312	3.415779	1.743160
H	2.433012	2.523379	1.743160
C	-0.334688	-1.926121	0.016960
H	-1.269888	-1.925821	-0.523140
H	0.074912	-2.629921	-0.692440
H	-0.808288	-2.445021	0.837160
H	1.374112	2.474079	-1.144640
$end

$rem
JOBTYPE		SP
EXCHANGE	HF
CORRELATION	pRIMP2
BASIS		cc-pvtz
METHOD		rimp2
AUX_BASIS	rimp2-cc-pvtz
SOLVENT_METHOD	PCM
PURECART	11111
SYMMETRY	false
MEM_TOTAL	110000
SCF_CONVERGENCE = 6
THRESH=10
$end

$solvent
dielectric 4.90
$end
--------------------------------------------------------------

             Standard Nuclear Orientation (Angstroms)
    I     Atom           X                Y                Z
 ----------------------------------------------------------------
    1      C      -0.3346880000    -0.4854210000     0.0169600000
    2      C       0.0971120000     0.2624790000     1.1163600000
    3      C       0.7891120000     1.4609790000     0.7936600000
    4      H      -0.0872880000    -0.0569210000     2.1530600000
    5      C       0.8994120000     1.6520790000    -0.5955400000
    6      S       0.1365120000     0.3306790000    -1.4698400000
    7      C       1.3330120000     2.4029790000     1.8315600000
    8      H       1.1202120000     2.0343790000     2.8536600000
    9      H       0.8873120000     3.4157790000     1.7431600000
   10      H       2.4330120000     2.5233790000     1.7431600000
   11      C      -0.3346880000    -1.9261210000     0.0169600000
   12      H      -1.2698880000    -1.9258210000    -0.5231400000
   13      H       0.0749120000    -2.6299210000    -0.6924400000
   14      H      -0.8082880000    -2.4450210000     0.8371600000
   15      H       1.3741120000     2.4740790000    -1.1446400000
 ----------------------------------------------------------------

   10    -629.4002951024      5.33e-07  Convergence criterion met
 Total energy in the final basis set =     -629.4002951024
        RIMP2         total energy =      -630.5817734534 a.u.

                    Orbital Energies (a.u.)
 --------------------------------------------------------------

 Alpha MOs
 -- Occupied --
-91.9775 -11.2722 -11.2590 -11.2474 -11.2310 -11.2269 -11.2145  -8.9776
 -6.6586  -6.6580  -6.6574  -1.1621  -1.0544  -0.9960  -0.9434  -0.8823
 -0.7464  -0.7205  -0.6448  -0.5879  -0.5742  -0.5725  -0.5503  -0.5456
 -0.5124  -0.4865  -0.4573  -0.4516  -0.3378  -0.2911

          Ground-State Mulliken Net Atomic Charges

     Atom                 Charge (a.u.)
  ----------------------------------------
      1 C                    -0.008172
      2 C                    -0.240783
      3 C                     0.036217
      4 H                     0.181760
      5 C                    -0.248759
      6 S                    -0.004349
      7 C                    -0.271276
      8 H                     0.101441
      9 H                     0.106944
     10 H                     0.106164
     11 C                    -0.372491
     12 H                     0.126146
     13 H                     0.160509
     14 H                     0.132112
     15 H                     0.194536
  ----------------------------------------
  Sum of atomic charges =     0.000000

                    Cartesian Multipole Moments
 -----------------------------------------------------------------
    Charge (ESU x 10^10)
                -0.0000
    Dipole Moment (Debye)
         X       0.2313      Y      -0.1653      Z       1.2049
       Tot       1.2379
    Quadrupole Moments (Debye-Ang)
        XX     -51.8661     XY       5.0217     YY     -44.5226
        XZ      -0.1703     YZ       0.8689     ZZ     -48.4311

 Total job time:  158.35s(wall), 154.82s(cpu)
        *  Thank you very much for using Q-Chem.  Have a nice day.  *
