 Q-Chem 5.4, Q-Chem, Inc., Pleasanton, CA (2021)
 Q-Chem 5.4.0 for Intel X86 EM64T Linux

User input:
--------------------------------------------------------------
$molecule
0 1
C	-0.440127	-0.417594	0.017710
C	0.114973	0.243906	1.117110
C	1.004573	1.304106	0.794410
H	-0.122027	-0.038594	2.153810
C	1.146473	1.473106	-0.594790
S	0.165673	0.304306	-1.469090
C	1.703773	2.137306	1.832310
H	1.430173	1.811306	2.854410
H	1.440773	3.212106	1.743910
H	2.807973	2.064906	1.743910
C	-0.440127	-1.858294	0.017710
H	0.387273	-1.858494	-0.676390
H	-0.966627	-2.562094	-0.609890
H	0.168673	-2.377194	0.743210
H	1.756573	2.200206	-1.143890
$end

$rem
JOBTYPE		SP
EXCHANGE	HF
CORRELATION	pRIMP2
BASIS		cc-pvtz
METHOD		rimp2
AUX_BASIS	rimp2-cc-pvtz
SOLVENT_METHOD	PCM
PURECART	11111
SYMMETRY	false
MEM_TOTAL	110000
SCF_CONVERGENCE = 6
THRESH=10
$end

$solvent
dielectric 4.90
$end
--------------------------------------------------------------

             Standard Nuclear Orientation (Angstroms)
    I     Atom           X                Y                Z
 ----------------------------------------------------------------
    1      C      -0.4401270000    -0.4175940000     0.0177100000
    2      C       0.1149730000     0.2439060000     1.1171100000
    3      C       1.0045730000     1.3041060000     0.7944100000
    4      H      -0.1220270000    -0.0385940000     2.1538100000
    5      C       1.1464730000     1.4731060000    -0.5947900000
    6      S       0.1656730000     0.3043060000    -1.4690900000
    7      C       1.7037730000     2.1373060000     1.8323100000
    8      H       1.4301730000     1.8113060000     2.8544100000
    9      H       1.4407730000     3.2121060000     1.7439100000
   10      H       2.8079730000     2.0649060000     1.7439100000
   11      C      -0.4401270000    -1.8582940000     0.0177100000
   12      H       0.3872730000    -1.8584940000    -0.6763900000
   13      H      -0.9666270000    -2.5620940000    -0.6098900000
   14      H       0.1686730000    -2.3771940000     0.7432100000
   15      H       1.7565730000     2.2002060000    -1.1438900000
 ----------------------------------------------------------------

   10    -629.3898156892      6.19e-07  Convergence criterion met
 Total energy in the final basis set =     -629.3898156892
        RIMP2         total energy =      -630.5729946142 a.u.

                    Orbital Energies (a.u.)
 --------------------------------------------------------------

 Alpha MOs
 -- Occupied --
-91.9726 -11.2708 -11.2634 -11.2478 -11.2363 -11.2277 -11.2141  -8.9737
 -6.6546  -6.6539  -6.6534  -1.1675  -1.0570  -0.9949  -0.9427  -0.8799
 -0.7493  -0.7226  -0.6449  -0.5894  -0.5808  -0.5654  -0.5509  -0.5479
 -0.5108  -0.4895  -0.4614  -0.4436  -0.3393  -0.2924

          Ground-State Mulliken Net Atomic Charges

     Atom                 Charge (a.u.)
  ----------------------------------------
      1 C                     0.017805
      2 C                    -0.266151
      3 C                     0.037145
      4 H                     0.180332
      5 C                    -0.239583
      6 S                    -0.007077
      7 C                    -0.269465
      8 H                     0.101573
      9 H                     0.107911
     10 H                     0.106236
     11 C                    -0.375476
     12 H                     0.138283
     13 H                     0.139319
     14 H                     0.135447
     15 H                     0.193699
  ----------------------------------------
  Sum of atomic charges =     0.000000

                    Cartesian Multipole Moments
 -----------------------------------------------------------------
    Charge (ESU x 10^10)
                -0.0000
    Dipole Moment (Debye)
         X       1.6937      Y      -0.1774      Z       1.2174
       Tot       2.0933
    Quadrupole Moments (Debye-Ang)
        XX     -51.2147     XY       3.5229     YY     -46.3508
        XZ       0.4317     YZ       1.1195     ZZ     -48.4094

 Total job time:  161.87s(wall), 159.98s(cpu)
        *  Thank you very much for using Q-Chem.  Have a nice day.  *
