 Q-Chem 5.4, Q-Chem, Inc., Pleasanton, CA (2021)
 Q-Chem 5.4.0 for Intel X86 EM64T Linux

User input:
--------------------------------------------------------------
$molecule
0 1
C	-0.589670	-0.237127	0.019394
C	0.158230	0.194673	1.118794
C	1.356730	0.886573	0.796094
H	-0.161170	0.010273	2.155494
C	1.547830	0.996873	-0.593106
S	0.226530	0.234073	-1.467406
C	2.298830	1.430473	1.833994
H	1.930130	1.217573	2.856094
H	2.419230	2.530373	1.745594
H	3.311630	0.984673	1.745594
C	-0.589670	-1.677827	0.019394
H	-0.220170	-1.678027	-0.995406
H	-1.359470	-2.381627	-0.260806
H	0.300330	-2.196727	0.343294
H	2.369930	1.471473	-1.142206
$end

$rem
JOBTYPE		SP
EXCHANGE	HF
CORRELATION	pRIMP2
BASIS		cc-pvtz
METHOD		rimp2
AUX_BASIS	rimp2-cc-pvtz
SOLVENT_METHOD	PCM
PURECART	11111
SYMMETRY	false
MEM_TOTAL	110000
SCF_CONVERGENCE = 6
THRESH=10
$end

$solvent
dielectric 4.90
$end
--------------------------------------------------------------

             Standard Nuclear Orientation (Angstroms)
    I     Atom           X                Y                Z
 ----------------------------------------------------------------
    1      C      -0.5896700000    -0.2371270000     0.0193940000
    2      C       0.1582300000     0.1946730000     1.1187940000
    3      C       1.3567300000     0.8865730000     0.7960940000
    4      H      -0.1611700000     0.0102730000     2.1554940000
    5      C       1.5478300000     0.9968730000    -0.5931060000
    6      S       0.2265300000     0.2340730000    -1.4674060000
    7      C       2.2988300000     1.4304730000     1.8339940000
    8      H       1.9301300000     1.2175730000     2.8560940000
    9      H       2.4192300000     2.5303730000     1.7455940000
   10      H       3.3116300000     0.9846730000     1.7455940000
   11      C      -0.5896700000    -1.6778270000     0.0193940000
   12      H      -0.2201700000    -1.6780270000    -0.9954060000
   13      H      -1.3594700000    -2.3816270000    -0.2608060000
   14      H       0.3003300000    -2.1967270000     0.3432940000
   15      H       2.3699300000     1.4714730000    -1.1422060000
 ----------------------------------------------------------------

   10    -629.3362427026      9.60e-07  Convergence criterion met
 Total energy in the final basis set =     -629.3362427026
        RIMP2         total energy =      -630.5281442330 a.u.

                    Orbital Energies (a.u.)
 --------------------------------------------------------------

 Alpha MOs
 -- Occupied --
-91.9715 -11.2833 -11.2543 -11.2477 -11.2453 -11.2289 -11.2036  -8.9735
 -6.6542  -6.6532  -6.6530  -1.1771  -1.0593  -0.9957  -0.9436  -0.8767
 -0.7574  -0.7287  -0.6443  -0.5920  -0.5823  -0.5651  -0.5526  -0.5474
 -0.5167  -0.4706  -0.4642  -0.4309  -0.3286  -0.3005

          Ground-State Mulliken Net Atomic Charges

     Atom                 Charge (a.u.)
  ----------------------------------------
      1 C                    -0.099463
      2 C                    -0.116342
      3 C                    -0.020546
      4 H                     0.185231
      5 C                    -0.184040
      6 S                     0.003919
      7 C                    -0.267934
      8 H                     0.102130
      9 H                     0.107198
     10 H                     0.103968
     11 C                    -0.380861
     12 H                     0.132995
     13 H                     0.119152
     14 H                     0.115867
     15 H                     0.198727
  ----------------------------------------
  Sum of atomic charges =     0.000000

                    Cartesian Multipole Moments
 -----------------------------------------------------------------
    Charge (ESU x 10^10)
                -0.0000
    Dipole Moment (Debye)
         X       2.6925      Y       0.1726      Z       1.1526
       Tot       2.9339
    Quadrupole Moments (Debye-Ang)
        XX     -48.2208     XY       3.8483     YY     -50.4372
        XZ       0.1277     YZ       1.3636     ZZ     -47.7196

 Total job time:  166.39s(wall), 164.28s(cpu)
        *  Thank you very much for using Q-Chem.  Have a nice day.  *
