 Q-Chem 5.4, Q-Chem, Inc., Pleasanton, CA (2021)
 Q-Chem 5.4.0 for Intel X86 EM64T Linux

User input:
--------------------------------------------------------------
$molecule
0 1
C	-0.433362	-0.417597	0.010946
C	0.121738	0.243903	1.110346
C	1.011338	1.304103	0.787646
H	-0.115262	-0.038597	2.147046
C	1.153238	1.473103	-0.601554
S	0.172438	0.304303	-1.475854
C	1.710538	2.137303	1.825546
H	1.436938	1.811303	2.847646
H	1.447538	3.212103	1.737146
H	2.814738	2.064903	1.737146
C	-0.433362	-1.858297	0.010946
H	-1.127662	-1.857997	0.838246
H	-1.060862	-2.562097	-0.515654
H	0.292238	-2.377197	0.619746
H	1.763338	2.200203	-1.150654
$end

$rem
JOBTYPE		SP
EXCHANGE	HF
CORRELATION	pRIMP2
BASIS		cc-pvtz
METHOD		rimp2
AUX_BASIS	rimp2-cc-pvtz
SOLVENT_METHOD	PCM
PURECART	11111
SYMMETRY	false
MEM_TOTAL	110000
SCF_CONVERGENCE = 6
THRESH=10
$end

$solvent
dielectric 4.90
$end
--------------------------------------------------------------

             Standard Nuclear Orientation (Angstroms)
    I     Atom           X                Y                Z
 ----------------------------------------------------------------
    1      C      -0.4333620000    -0.4175970000     0.0109460000
    2      C       0.1217380000     0.2439030000     1.1103460000
    3      C       1.0113380000     1.3041030000     0.7876460000
    4      H      -0.1152620000    -0.0385970000     2.1470460000
    5      C       1.1532380000     1.4731030000    -0.6015540000
    6      S       0.1724380000     0.3043030000    -1.4758540000
    7      C       1.7105380000     2.1373030000     1.8255460000
    8      H       1.4369380000     1.8113030000     2.8476460000
    9      H       1.4475380000     3.2121030000     1.7371460000
   10      H       2.8147380000     2.0649030000     1.7371460000
   11      C      -0.4333620000    -1.8582970000     0.0109460000
   12      H      -1.1276620000    -1.8579970000     0.8382460000
   13      H      -1.0608620000    -2.5620970000    -0.5156540000
   14      H       0.2922380000    -2.3771970000     0.6197460000
   15      H       1.7633380000     2.2002030000    -1.1506540000
 ----------------------------------------------------------------

   10    -629.3915181048      6.04e-07  Convergence criterion met
 Total energy in the final basis set =     -629.3915181048
        RIMP2         total energy =      -630.5767452540 a.u.

                    Orbital Energies (a.u.)
 --------------------------------------------------------------

 Alpha MOs
 -- Occupied --
-91.9725 -11.2655 -11.2653 -11.2485 -11.2402 -11.2281 -11.2126  -8.9731
 -6.6540  -6.6532  -6.6528  -1.1650  -1.0542  -0.9988  -0.9379  -0.8839
 -0.7441  -0.7258  -0.6446  -0.5894  -0.5799  -0.5656  -0.5573  -0.5428
 -0.5144  -0.4868  -0.4618  -0.4313  -0.3372  -0.2969

          Ground-State Mulliken Net Atomic Charges

     Atom                 Charge (a.u.)
  ----------------------------------------
      1 C                    -0.005433
      2 C                    -0.236475
      3 C                     0.024839
      4 H                     0.179356
      5 C                    -0.230803
      6 S                     0.001693
      7 C                    -0.269701
      8 H                     0.101332
      9 H                     0.107030
     10 H                     0.106358
     11 C                    -0.378490
     12 H                     0.120391
     13 H                     0.147529
     14 H                     0.139232
     15 H                     0.193142
  ----------------------------------------
  Sum of atomic charges =     0.000000

                    Cartesian Multipole Moments
 -----------------------------------------------------------------
    Charge (ESU x 10^10)
                -0.0000
    Dipole Moment (Debye)
         X       0.8386      Y       0.0011      Z       2.1066
       Tot       2.2674
    Quadrupole Moments (Debye-Ang)
        XX     -50.2574     XY       5.4770     YY     -46.3346
        XZ       0.2020     YZ      -0.6948     ZZ     -48.5158

 Total job time:  157.53s(wall), 156.15s(cpu)
        *  Thank you very much for using Q-Chem.  Have a nice day.  *
