 Q-Chem 5.4, Q-Chem, Inc., Pleasanton, CA (2021)
 Q-Chem 5.4.0 for Intel X86 EM64T Linux

User input:
--------------------------------------------------------------
$molecule
0 1
C	-0.284017	-0.512744	0.019119
C	0.080983	0.269956	1.118519
C	0.665883	1.524156	0.795819
H	-0.074917	-0.064344	2.155219
C	0.759183	1.724156	-0.593381
S	0.114283	0.341356	-1.467681
C	1.125583	2.509956	1.833719
H	0.945683	2.124256	2.855819
H	0.593283	3.480156	1.745319
H	2.210883	2.725856	1.745319
C	-0.284017	-1.953444	0.019119
H	-0.978117	-1.953644	-0.808281
H	-0.911617	-2.657244	0.545619
H	0.441483	-2.472344	-0.589681
H	1.160283	2.584456	-1.142481
$end

$rem
JOBTYPE		SP
EXCHANGE	HF
CORRELATION	pRIMP2
BASIS		cc-pvtz
METHOD		rimp2
AUX_BASIS	rimp2-cc-pvtz
SOLVENT_METHOD	PCM
PURECART	11111
SYMMETRY	false
MEM_TOTAL	110000
SCF_CONVERGENCE = 6
THRESH=10
$end

$solvent
dielectric 4.90
$end
--------------------------------------------------------------

             Standard Nuclear Orientation (Angstroms)
    I     Atom           X                Y                Z
 ----------------------------------------------------------------
    1      C      -0.2840170000    -0.5127440000     0.0191190000
    2      C       0.0809830000     0.2699560000     1.1185190000
    3      C       0.6658830000     1.5241560000     0.7958190000
    4      H      -0.0749170000    -0.0643440000     2.1552190000
    5      C       0.7591830000     1.7241560000    -0.5933810000
    6      S       0.1142830000     0.3413560000    -1.4676810000
    7      C       1.1255830000     2.5099560000     1.8337190000
    8      H       0.9456830000     2.1242560000     2.8558190000
    9      H       0.5932830000     3.4801560000     1.7453190000
   10      H       2.2108830000     2.7258560000     1.7453190000
   11      C      -0.2840170000    -1.9534440000     0.0191190000
   12      H      -0.9781170000    -1.9536440000    -0.8082810000
   13      H      -0.9116170000    -2.6572440000     0.5456190000
   14      H       0.4414830000    -2.4723440000    -0.5896810000
   15      H       1.1602830000     2.5844560000    -1.1424810000
 ----------------------------------------------------------------

   10    -629.4081027189      5.26e-07  Convergence criterion met
 Total energy in the final basis set =     -629.4081027189
        RIMP2         total energy =      -630.5879497931 a.u.

                    Orbital Energies (a.u.)
 --------------------------------------------------------------

 Alpha MOs
 -- Occupied --
-91.9795 -11.2727 -11.2592 -11.2471 -11.2298 -11.2268 -11.2152  -8.9794
 -6.6604  -6.6598  -6.6592  -1.1620  -1.0549  -0.9953  -0.9452  -0.8816
 -0.7473  -0.7195  -0.6465  -0.5904  -0.5747  -0.5672  -0.5529  -0.5466
 -0.5108  -0.4836  -0.4628  -0.4489  -0.3383  -0.2967

          Ground-State Mulliken Net Atomic Charges

     Atom                 Charge (a.u.)
  ----------------------------------------
      1 C                     0.004692
      2 C                    -0.243258
      3 C                     0.032963
      4 H                     0.179712
      5 C                    -0.247407
      6 S                    -0.001847
      7 C                    -0.272247
      8 H                     0.101703
      9 H                     0.106917
     10 H                     0.106360
     11 C                    -0.369424
     12 H                     0.117461
     13 H                     0.155246
     14 H                     0.134450
     15 H                     0.194681
  ----------------------------------------
  Sum of atomic charges =     0.000000

                    Cartesian Multipole Moments
 -----------------------------------------------------------------
    Charge (ESU x 10^10)
                -0.0000
    Dipole Moment (Debye)
         X       0.2808      Y      -0.0655      Z       1.0199
       Tot       1.0599
    Quadrupole Moments (Debye-Ang)
        XX     -52.3132     XY       4.4333     YY     -43.8191
        XZ      -0.1875     YZ       0.9767     ZZ     -48.6294

 Total job time:  156.96s(wall), 155.20s(cpu)
        *  Thank you very much for using Q-Chem.  Have a nice day.  *
