 Q-Chem 5.4, Q-Chem, Inc., Pleasanton, CA (2021)
 Q-Chem 5.4.0 for Intel X86 EM64T Linux

User input:
--------------------------------------------------------------
$molecule
0 1
C	-0.341105	-0.485419	0.010542
C	0.090695	0.262481	1.109942
C	0.782695	1.460981	0.787242
H	-0.093705	-0.056919	2.146642
C	0.892995	1.652081	-0.601958
S	0.130095	0.330681	-1.476258
C	1.326595	2.402981	1.825142
H	1.113795	2.034381	2.847242
H	0.880895	3.415781	1.736742
H	2.426595	2.523381	1.736742
C	-0.341105	-1.926119	0.010542
H	0.198795	-1.926319	0.945942
H	0.368395	-2.629919	-0.398958
H	-1.161305	-2.445019	0.484142
H	1.367695	2.474081	-1.151058
$end

$rem
JOBTYPE		SP
EXCHANGE	HF
CORRELATION	pRIMP2
BASIS		cc-pvtz
METHOD		rimp2
AUX_BASIS	rimp2-cc-pvtz
SOLVENT_METHOD	PCM
PURECART	11111
SYMMETRY	false
MEM_TOTAL	110000
SCF_CONVERGENCE = 6
THRESH=10
$end

$solvent
dielectric 4.90
$end
--------------------------------------------------------------

             Standard Nuclear Orientation (Angstroms)
    I     Atom           X                Y                Z
 ----------------------------------------------------------------
    1      C      -0.3411050000    -0.4854190000     0.0105420000
    2      C       0.0906950000     0.2624810000     1.1099420000
    3      C       0.7826950000     1.4609810000     0.7872420000
    4      H      -0.0937050000    -0.0569190000     2.1466420000
    5      C       0.8929950000     1.6520810000    -0.6019580000
    6      S       0.1300950000     0.3306810000    -1.4762580000
    7      C       1.3265950000     2.4029810000     1.8251420000
    8      H       1.1137950000     2.0343810000     2.8472420000
    9      H       0.8808950000     3.4157810000     1.7367420000
   10      H       2.4265950000     2.5233810000     1.7367420000
   11      C      -0.3411050000    -1.9261190000     0.0105420000
   12      H       0.1987950000    -1.9263190000     0.9459420000
   13      H       0.3683950000    -2.6299190000    -0.3989580000
   14      H      -1.1613050000    -2.4450190000     0.4841420000
   15      H       1.3676950000     2.4740810000    -1.1510580000
 ----------------------------------------------------------------

   10    -629.4013072116      5.24e-07  Convergence criterion met
 Total energy in the final basis set =     -629.4013072116
        RIMP2         total energy =      -630.5838415558 a.u.

                    Orbital Energies (a.u.)
 --------------------------------------------------------------

 Alpha MOs
 -- Occupied --
-91.9767 -11.2730 -11.2592 -11.2476 -11.2340 -11.2276 -11.2130  -8.9766
 -6.6575  -6.6569  -6.6565  -1.1638  -1.0543  -0.9993  -0.9374  -0.8835
 -0.7429  -0.7250  -0.6464  -0.5895  -0.5772  -0.5716  -0.5561  -0.5426
 -0.5130  -0.4743  -0.4680  -0.4437  -0.3351  -0.2978

          Ground-State Mulliken Net Atomic Charges

     Atom                 Charge (a.u.)
  ----------------------------------------
      1 C                     0.021334
      2 C                    -0.251571
      3 C                     0.029393
      4 H                     0.175893
      5 C                    -0.248784
      6 S                     0.001459
      7 C                    -0.270810
      8 H                     0.101284
      9 H                     0.107195
     10 H                     0.106221
     11 C                    -0.383109
     12 H                     0.136771
     13 H                     0.158755
     14 H                     0.123472
     15 H                     0.192497
  ----------------------------------------
  Sum of atomic charges =     0.000000

                    Cartesian Multipole Moments
 -----------------------------------------------------------------
    Charge (ESU x 10^10)
                -0.0000
    Dipole Moment (Debye)
         X       1.1478      Y      -0.1020      Z       2.0838
       Tot       2.3812
    Quadrupole Moments (Debye-Ang)
        XX     -52.1105     XY       2.9368     YY     -44.8696
        XZ      -0.3289     YZ      -0.8804     ZZ     -48.5799

 Total job time:  161.01s(wall), 159.29s(cpu)
        *  Thank you very much for using Q-Chem.  Have a nice day.  *
