 Q-Chem 5.4, Q-Chem, Inc., Pleasanton, CA (2021)
 Q-Chem 5.4.0 for Intel X86 EM64T Linux

User input:
--------------------------------------------------------------
$molecule
0 1
C	-2.405611	-1.193021	-0.000214
C	-1.368666	-2.129464	0.000078
C	-0.056385	-1.583331	0.000240
H	-1.558377	-3.213550	-0.000026
C	-0.070096	-0.177164	0.000128
S	-1.724467	0.426738	0.000356
C	1.187191	-2.428518	0.000317
H	0.935459	-3.506775	0.000315
H	1.817888	-2.233555	0.892774
H	1.817979	-2.233577	-0.892081
H	-2.405485	-1.192963	-1.080214
C	-3.830362	-1.463163	-0.000693
H	-4.210742	-1.535317	1.007605
H	-4.047583	-2.393146	-0.504941
H	-4.372936	-0.677211	-0.504888
H	-0.070222	-0.177222	1.080128
C	1.013453	0.772275	-0.000060
H	1.304668	1.027397	-1.008181
H	1.880178	0.370895	0.504104
H	0.729382	1.684243	0.504040
$end

$rem
JOBTYPE		SP
EXCHANGE	HF
CORRELATION	pRIMP2
BASIS		cc-pvtz
METHOD		rimp2
AUX_BASIS	rimp2-cc-pvtz
SOLVENT_METHOD	PCM
PURECART	11111
SYMMETRY	false
MEM_TOTAL	110000
SCF_CONVERGENCE = 6
THRESH=10
$end

$solvent
dielectric 4.90
$end
--------------------------------------------------------------

 Q-Chem 5.4, Q-Chem, Inc., Pleasanton, CA (2021)
 Q-Chem 5.4.0 for Intel X86 EM64T Linux

User input:
--------------------------------------------------------------
$molecule
0 1
C	-2.405611	-1.193021	-0.000214
C	-1.368666	-2.129464	0.000078
C	-0.056385	-1.583331	0.000240
H	-1.558377	-3.213550	-0.000026
C	-0.070096	-0.177164	0.000128
S	-1.724467	0.426738	0.000356
C	1.187191	-2.428518	0.000317
H	0.935459	-3.506775	0.000315
H	1.817888	-2.233555	0.892774
H	1.817979	-2.233577	-0.892081
H	-2.405485	-1.192963	-1.080214
C	-3.830362	-1.463163	-0.000693
H	-4.210742	-1.535317	1.007605
H	-4.047583	-2.393146	-0.504941
H	-4.372936	-0.677211	-0.504888
H	-0.070222	-0.177222	1.080128
C	1.013453	0.772275	-0.000060
H	1.304668	1.027397	-1.008181
H	1.880178	0.370895	0.504104
H	0.729382	1.684243	0.504040
$end

$rem
JOBTYPE		SP
EXCHANGE	HF
CORRELATION	pRIMP2
BASIS		cc-pvtz
METHOD		rimp2
AUX_BASIS	rimp2-cc-pvtz
SOLVENT_METHOD	PCM
PURECART	11111
SYMMETRY	false
MEM_TOTAL	110000
SCF_CONVERGENCE = 6
THRESH=10
$end

$solvent
dielectric 4.90
$end
--------------------------------------------------------------

             Standard Nuclear Orientation (Angstroms)
    I     Atom           X                Y                Z
 ----------------------------------------------------------------
    1      C      -2.4056110000    -1.1930210000    -0.0002140000
    2      C      -1.3686660000    -2.1294640000     0.0000780000
    3      C      -0.0563850000    -1.5833310000     0.0002400000
    4      H      -1.5583770000    -3.2135500000    -0.0000260000
    5      C      -0.0700960000    -0.1771640000     0.0001280000
    6      S      -1.7244670000     0.4267380000     0.0003560000
    7      C       1.1871910000    -2.4285180000     0.0003170000
    8      H       0.9354590000    -3.5067750000     0.0003150000
    9      H       1.8178880000    -2.2335550000     0.8927740000
   10      H       1.8179790000    -2.2335770000    -0.8920810000
   11      H      -2.4054850000    -1.1929630000    -1.0802140000
   12      C      -3.8303620000    -1.4631630000    -0.0006930000
   13      H      -4.2107420000    -1.5353170000     1.0076050000
   14      H      -4.0475830000    -2.3931460000    -0.5049410000
   15      H      -4.3729360000    -0.6772110000    -0.5048880000
   16      H      -0.0702220000    -0.1772220000     1.0801280000
   17      C       1.0134530000     0.7722750000    -0.0000600000
   18      H       1.3046680000     1.0273970000    -1.0081810000
   19      H       1.8801780000     0.3708950000     0.5041040000
   20      H       0.7293820000     1.6842430000     0.5040400000
 ----------------------------------------------------------------

    9    -669.5263687666      4.62e-07  Convergence criterion met
 Total energy in the final basis set =     -669.5263687666
    9    -669.5263687666      4.62e-07  Convergence criterion met
 Total energy in the final basis set =     -669.5263687666
        RIMP2         total energy =      -670.9090020219 a.u.
 Total job time:  283.20s(wall), 280.22s(cpu)
        *  Thank you very much for using Q-Chem.  Have a nice day.  *
        RIMP2         total energy =      -670.9090020219 a.u.

                    Orbital Energies (a.u.)
 --------------------------------------------------------------

 Alpha MOs
 -- Occupied --
-91.9362 -11.2423 -11.2344 -11.2306 -11.2272 -11.2235 -11.2173 -11.2169
 -8.9406  -6.6220  -6.6213  -6.6198  -1.1901  -1.0929  -1.0217  -0.9687
 -0.9190  -0.8780  -0.7554  -0.7215  -0.6481  -0.6370  -0.6174  -0.5884
 -0.5768  -0.5579  -0.5470  -0.5399  -0.5106  -0.4970  -0.4722  -0.4638
 -0.4352  -0.3525  -0.2426

          Ground-State Mulliken Net Atomic Charges

     Atom                 Charge (a.u.)
  ----------------------------------------
      1 C                     0.071879
      2 C                    -0.359589
      3 C                    -0.087951
      4 H                     0.176431
      5 C                     0.069353
      6 S                    -0.236195
      7 C                    -0.279145
      8 H                     0.109184
      9 H                     0.097252
     10 H                     0.099142
     11 H                     0.169371
     12 C                    -0.291928
     13 H                     0.074005
     14 H                     0.110755
     15 H                     0.108239
     16 H                     0.171789
     17 C                    -0.301524
     18 H                     0.078688
     19 H                     0.109575
     20 H                     0.110667
  ----------------------------------------
  Sum of atomic charges =     0.000000

                    Cartesian Multipole Moments
 -----------------------------------------------------------------
    Charge (ESU x 10^10)
                -0.0000
    Dipole Moment (Debye)
         X       1.2339      Y      -1.8753      Z      -0.0430
       Tot       2.2452
    Quadrupole Moments (Debye-Ang)
        XX     -55.6888     XY       4.5625     YY     -56.7417
        XZ       2.2849     YZ       1.1983     ZZ     -59.9436

 Total job time:  285.62s(wall), 280.34s(cpu)
        *  Thank you very much for using Q-Chem.  Have a nice day.  *
