 Q-Chem 5.4, Q-Chem, Inc., Pleasanton, CA (2021)
 Q-Chem 5.4.0 for Intel X86 EM64T Linux

User input:
--------------------------------------------------------------
$molecule
0 1
C	0.034972	0.582840	-0.001077
C	0.034925	-0.261506	-1.114298
C	0.035231	-1.652554	-0.822186
H	0.034869	0.126836	-2.144066
C	0.035468	-1.901034	0.561921
S	0.034768	-0.388122	1.463440
C	0.035473	-2.716913	-1.884241
H	0.035296	-2.268722	-2.896729
H	-0.856765	-3.373184	-1.810154
H	0.928090	-3.372680	-1.810248
C	-0.461003	1.945521	-0.001077
H	-1.540839	1.964370	-0.001077
H	-0.119648	2.481641	-0.874262
H	-0.119648	2.481641	0.872108
H	0.035610	-2.859193	1.095219
$end

$rem
JOBTYPE		SP
EXCHANGE	HF
CORRELATION	pRIMP2
BASIS		cc-pvtz
METHOD		rimp2
AUX_BASIS	rimp2-cc-pvtz
SOLVENT_METHOD	PCM
PURECART	11111
SYMMETRY	false
MEM_TOTAL	110000
SCF_CONVERGENCE = 6
THRESH=10
$end

$solvent
dielectric 4.90
$end
--------------------------------------------------------------

             Standard Nuclear Orientation (Angstroms)
    I     Atom           X                Y                Z
 ----------------------------------------------------------------
    1      C       0.0349720000     0.5828400000    -0.0010770000
    2      C       0.0349250000    -0.2615060000    -1.1142980000
    3      C       0.0352310000    -1.6525540000    -0.8221860000
    4      H       0.0348690000     0.1268360000    -2.1440660000
    5      C       0.0354680000    -1.9010340000     0.5619210000
    6      S       0.0347680000    -0.3881220000     1.4634400000
    7      C       0.0354730000    -2.7169130000    -1.8842410000
    8      H       0.0352960000    -2.2687220000    -2.8967290000
    9      H      -0.8567650000    -3.3731840000    -1.8101540000
   10      H       0.9280900000    -3.3726800000    -1.8102480000
   11      C      -0.4610030000     1.9455210000    -0.0010770000
   12      H      -1.5408390000     1.9643700000    -0.0010770000
   13      H      -0.1196480000     2.4816410000    -0.8742620000
   14      H      -0.1196480000     2.4816410000     0.8721080000
   15      H       0.0356100000    -2.8591930000     1.0952190000
 ----------------------------------------------------------------

   10    -629.4663535645      5.59e-07  Convergence criterion met
 Total energy in the final basis set =     -629.4663535645
        RIMP2         total energy =      -630.6372735902 a.u.

                    Orbital Energies (a.u.)
 --------------------------------------------------------------

 Alpha MOs
 -- Occupied --
-91.9777 -11.2667 -11.2569 -11.2471 -11.2295 -11.2270 -11.2195  -8.9776
 -6.6585  -6.6580  -6.6574  -1.1591  -1.0467  -0.9941  -0.9375  -0.8804
 -0.7403  -0.7180  -0.6395  -0.5895  -0.5834  -0.5654  -0.5632  -0.5439
 -0.5071  -0.4900  -0.4777  -0.4551  -0.3375  -0.3002

          Ground-State Mulliken Net Atomic Charges

     Atom                 Charge (a.u.)
  ----------------------------------------
      1 C                     0.018171
      2 C                    -0.280597
      3 C                     0.045809
      4 H                     0.179001
      5 C                    -0.259742
      6 S                    -0.004988
      7 C                    -0.271637
      8 H                     0.101626
      9 H                     0.106669
     10 H                     0.106865
     11 C                    -0.282066
     12 H                     0.119252
     13 H                     0.115737
     14 H                     0.111776
     15 H                     0.194125
  ----------------------------------------
  Sum of atomic charges =     0.000000

                    Cartesian Multipole Moments
 -----------------------------------------------------------------
    Charge (ESU x 10^10)
                -0.0000
    Dipole Moment (Debye)
         X      -0.5295      Y      -0.0099      Z      -1.5153
       Tot       1.6052
    Quadrupole Moments (Debye-Ang)
        XX     -53.6554     XY      -0.6668     YY     -43.0071
        XZ       0.0139     YZ       0.2559     ZZ     -48.4662

 Total job time:  166.35s(wall), 156.43s(cpu)
        *  Thank you very much for using Q-Chem.  Have a nice day.  *
