 Q-Chem 5.4, Q-Chem, Inc., Pleasanton, CA (2021)
 Q-Chem 5.4.0 for Intel X86 EM64T Linux

User input:
--------------------------------------------------------------
$molecule
0 1
C	0.043224	0.586258	-0.001077
C	0.043177	-0.258088	-1.114298
C	0.043483	-1.649136	-0.822186
H	0.043121	0.130254	-2.144066
C	0.043720	-1.897616	0.561921
S	0.043020	-0.384704	1.463440
C	0.043725	-2.713495	-1.884241
H	0.043548	-2.265304	-2.896729
H	-0.848513	-3.369766	-1.810154
H	0.936342	-3.369262	-1.810248
C	-0.569630	1.900527	-0.001077
H	-1.646999	1.825190	-0.001077
H	-0.276299	2.464358	-0.874262
H	-0.276299	2.464358	0.872108
H	0.043862	-2.855775	1.095219
$end

$rem
JOBTYPE		SP
EXCHANGE	HF
CORRELATION	pRIMP2
BASIS		cc-pvtz
METHOD		rimp2
AUX_BASIS	rimp2-cc-pvtz
SOLVENT_METHOD	PCM
PURECART	11111
SYMMETRY	false
MEM_TOTAL	110000
SCF_CONVERGENCE = 6
THRESH=10
$end

$solvent
dielectric 4.90
$end
--------------------------------------------------------------

             Standard Nuclear Orientation (Angstroms)
    I     Atom           X                Y                Z
 ----------------------------------------------------------------
    1      C       0.0432240000     0.5862580000    -0.0010770000
    2      C       0.0431770000    -0.2580880000    -1.1142980000
    3      C       0.0434830000    -1.6491360000    -0.8221860000
    4      H       0.0431210000     0.1302540000    -2.1440660000
    5      C       0.0437200000    -1.8976160000     0.5619210000
    6      S       0.0430200000    -0.3847040000     1.4634400000
    7      C       0.0437250000    -2.7134950000    -1.8842410000
    8      H       0.0435480000    -2.2653040000    -2.8967290000
    9      H      -0.8485130000    -3.3697660000    -1.8101540000
   10      H       0.9363420000    -3.3692620000    -1.8102480000
   11      C      -0.5696300000     1.9005270000    -0.0010770000
   12      H      -1.6469990000     1.8251900000    -0.0010770000
   13      H      -0.2762990000     2.4643580000    -0.8742620000
   14      H      -0.2762990000     2.4643580000     0.8721080000
   15      H       0.0438620000    -2.8557750000     1.0952190000
 ----------------------------------------------------------------

   10    -629.4621282672      5.47e-07  Convergence criterion met
 Total energy in the final basis set =     -629.4621282672
        RIMP2         total energy =      -630.6340972030 a.u.

                    Orbital Energies (a.u.)
 --------------------------------------------------------------

 Alpha MOs
 -- Occupied --
-91.9774 -11.2647 -11.2585 -11.2472 -11.2307 -11.2272 -11.2189  -8.9773
 -6.6582  -6.6577  -6.6571  -1.1597  -1.0468  -0.9941  -0.9371  -0.8802
 -0.7406  -0.7185  -0.6392  -0.5893  -0.5832  -0.5657  -0.5630  -0.5438
 -0.5080  -0.4900  -0.4750  -0.4550  -0.3374  -0.3002

          Ground-State Mulliken Net Atomic Charges

     Atom                 Charge (a.u.)
  ----------------------------------------
      1 C                     0.008251
      2 C                    -0.273582
      3 C                     0.045299
      4 H                     0.179040
      5 C                    -0.256023
      6 S                    -0.004306
      7 C                    -0.270968
      8 H                     0.101683
      9 H                     0.106485
     10 H                     0.106863
     11 C                    -0.282870
     12 H                     0.120014
     13 H                     0.114653
     14 H                     0.111245
     15 H                     0.194215
  ----------------------------------------
  Sum of atomic charges =     0.000000

                    Cartesian Multipole Moments
 -----------------------------------------------------------------
    Charge (ESU x 10^10)
                -0.0000
    Dipole Moment (Debye)
         X      -0.6408      Y      -0.1636      Z      -1.5394
       Tot       1.6754
    Quadrupole Moments (Debye-Ang)
        XX     -53.5953     XY      -0.7840     YY     -43.1968
        XZ       0.0157     YZ       0.2207     ZZ     -48.4293

 Total job time:  160.23s(wall), 156.64s(cpu)
        *  Thank you very much for using Q-Chem.  Have a nice day.  *
