 Q-Chem 5.4, Q-Chem, Inc., Pleasanton, CA (2021)
 Q-Chem 5.4.0 for Intel X86 EM64T Linux

User input:
--------------------------------------------------------------
$molecule
0 1
C	0.017733	0.578221	-0.001077
C	0.017686	-0.266125	-1.114298
C	0.017992	-1.657173	-0.822186
H	0.017630	0.122217	-2.144066
C	0.018229	-1.905653	0.561921
S	0.017529	-0.392741	1.463440
C	0.018234	-2.721532	-1.884241
H	0.018057	-2.273341	-2.896729
H	-0.874004	-3.377803	-1.810154
H	0.910851	-3.377299	-1.810248
C	-0.234080	2.006325	-0.001077
H	-1.294238	2.212399	-0.001077
H	0.195186	2.475025	-0.874262
H	0.195186	2.475025	0.872108
H	0.018371	-2.863812	1.095219
$end

$rem
JOBTYPE		SP
EXCHANGE	HF
CORRELATION	pRIMP2
BASIS		cc-pvtz
METHOD		rimp2
AUX_BASIS	rimp2-cc-pvtz
SOLVENT_METHOD	PCM
PURECART	11111
SYMMETRY	false
MEM_TOTAL	110000
SCF_CONVERGENCE = 6
THRESH=10
$end

$solvent
dielectric 4.90
$end
--------------------------------------------------------------

             Standard Nuclear Orientation (Angstroms)
    I     Atom           X                Y                Z
 ----------------------------------------------------------------
    1      C       0.0177330000     0.5782210000    -0.0010770000
    2      C       0.0176860000    -0.2661250000    -1.1142980000
    3      C       0.0179920000    -1.6571730000    -0.8221860000
    4      H       0.0176300000     0.1222170000    -2.1440660000
    5      C       0.0182290000    -1.9056530000     0.5619210000
    6      S       0.0175290000    -0.3927410000     1.4634400000
    7      C       0.0182340000    -2.7215320000    -1.8842410000
    8      H       0.0180570000    -2.2733410000    -2.8967290000
    9      H      -0.8740040000    -3.3778030000    -1.8101540000
   10      H       0.9108510000    -3.3772990000    -1.8102480000
   11      C      -0.2340800000     2.0063250000    -0.0010770000
   12      H      -1.2942380000     2.2123990000    -0.0010770000
   13      H       0.1951860000     2.4750250000    -0.8742620000
   14      H       0.1951860000     2.4750250000     0.8721080000
   15      H       0.0183710000    -2.8638120000     1.0952190000
 ----------------------------------------------------------------

   10    -629.4718098339      5.75e-07  Convergence criterion met
 Total energy in the final basis set =     -629.4718098339
        RIMP2         total energy =      -630.6413121184 a.u.

                    Orbital Energies (a.u.)
 --------------------------------------------------------------

 Alpha MOs
 -- Occupied --
-91.9782 -11.2692 -11.2549 -11.2469 -11.2279 -11.2269 -11.2203  -8.9779
 -6.6589  -6.6584  -6.6578  -1.1582  -1.0466  -0.9943  -0.9379  -0.8806
 -0.7398  -0.7173  -0.6398  -0.5897  -0.5837  -0.5650  -0.5634  -0.5441
 -0.5057  -0.4899  -0.4816  -0.4552  -0.3375  -0.3001

          Ground-State Mulliken Net Atomic Charges

     Atom                 Charge (a.u.)
  ----------------------------------------
      1 C                     0.033005
      2 C                    -0.285926
      3 C                     0.043026
      4 H                     0.179067
      5 C                    -0.263488
      6 S                    -0.006137
      7 C                    -0.273064
      8 H                     0.101541
      9 H                     0.106916
     10 H                     0.106901
     11 C                    -0.281742
     12 H                     0.116848
     13 H                     0.116994
     14 H                     0.111977
     15 H                     0.194083
  ----------------------------------------
  Sum of atomic charges =     0.000000

                    Cartesian Multipole Moments
 -----------------------------------------------------------------
    Charge (ESU x 10^10)
                -0.0000
    Dipole Moment (Debye)
         X      -0.2816      Y       0.1995      Z      -1.4810
       Tot       1.5207
    Quadrupole Moments (Debye-Ang)
        XX     -53.7620     XY      -0.3513     YY     -42.7302
        XZ       0.0086     YZ       0.3083     ZZ     -48.5060

 Total job time:  159.34s(wall), 155.74s(cpu)
        *  Thank you very much for using Q-Chem.  Have a nice day.  *
