 Q-Chem 5.4, Q-Chem, Inc., Pleasanton, CA (2021)
 Q-Chem 5.4.0 for Intel X86 EM64T Linux

User input:
--------------------------------------------------------------
$molecule
0 1
C	0.088623	0.627858	-0.001077
C	0.088576	-0.216488	-1.114298
C	0.088882	-1.607536	-0.822186
H	0.088520	0.171854	-2.144066
C	0.089119	-1.856016	0.561921
S	0.088419	-0.343104	1.463440
C	0.089124	-2.671895	-1.884241
H	0.088947	-2.223704	-2.896729
H	-0.803114	-3.328166	-1.810154
H	0.981741	-3.327662	-1.810248
C	-1.167231	1.352926	-0.001077
H	-2.006549	0.673260	-0.001077
H	-1.250348	1.983037	-0.874262
H	-1.250348	1.983037	0.872108
H	0.089261	-2.814175	1.095219
$end

$rem
JOBTYPE		SP
EXCHANGE	HF
CORRELATION	pRIMP2
BASIS		cc-pvtz
METHOD		rimp2
AUX_BASIS	rimp2-cc-pvtz
SOLVENT_METHOD	PCM
PURECART	11111
SYMMETRY	false
MEM_TOTAL	110000
SCF_CONVERGENCE = 6
THRESH=10
$end

$solvent
dielectric 4.90
$end
--------------------------------------------------------------

             Standard Nuclear Orientation (Angstroms)
    I     Atom           X                Y                Z
 ----------------------------------------------------------------
    1      C       0.0886230000     0.6278580000    -0.0010770000
    2      C       0.0885760000    -0.2164880000    -1.1142980000
    3      C       0.0888820000    -1.6075360000    -0.8221860000
    4      H       0.0885200000     0.1718540000    -2.1440660000
    5      C       0.0891190000    -1.8560160000     0.5619210000
    6      S       0.0884190000    -0.3431040000     1.4634400000
    7      C       0.0891240000    -2.6718950000    -1.8842410000
    8      H       0.0889470000    -2.2237040000    -2.8967290000
    9      H      -0.8031140000    -3.3281660000    -1.8101540000
   10      H       0.9817410000    -3.3276620000    -1.8102480000
   11      C      -1.1672310000     1.3529260000    -0.0010770000
   12      H      -2.0065490000     0.6732600000    -0.0010770000
   13      H      -1.2503480000     1.9830370000    -0.8742620000
   14      H      -1.2503480000     1.9830370000     0.8721080000
   15      H       0.0892610000    -2.8141750000     1.0952190000
 ----------------------------------------------------------------

   10    -629.4050278427      8.97e-07  Convergence criterion met
 Total energy in the final basis set =     -629.4050278427
        RIMP2         total energy =      -630.5876581779 a.u.

                    Orbital Energies (a.u.)
 --------------------------------------------------------------

 Alpha MOs
 -- Occupied --
-91.9742 -11.2821 -11.2505 -11.2494 -11.2368 -11.2292 -11.2139  -8.9750
 -6.6559  -6.6551  -6.6548  -1.1718  -1.0510  -0.9962  -0.9337  -0.8774
 -0.7480  -0.7274  -0.6396  -0.5930  -0.5837  -0.5663  -0.5633  -0.5416
 -0.5151  -0.4891  -0.4596  -0.4390  -0.3365  -0.3035

          Ground-State Mulliken Net Atomic Charges

     Atom                 Charge (a.u.)
  ----------------------------------------
      1 C                    -0.118158
      2 C                    -0.124877
      3 C                    -0.017917
      4 H                     0.184726
      5 C                    -0.186847
      6 S                     0.007564
      7 C                    -0.268029
      8 H                     0.102524
      9 H                     0.104630
     10 H                     0.106882
     11 C                    -0.286367
     12 H                     0.097159
     13 H                     0.099881
     14 H                     0.100418
     15 H                     0.198411
  ----------------------------------------
  Sum of atomic charges =     0.000000

                    Cartesian Multipole Moments
 -----------------------------------------------------------------
    Charge (ESU x 10^10)
                -0.0000
    Dipole Moment (Debye)
         X      -1.0322      Y      -2.1188      Z      -1.7954
       Tot       2.9628
    Quadrupole Moments (Debye-Ang)
        XX     -53.7522     XY      -1.1238     YY     -44.4924
        XZ      -0.0978     YZ      -0.2153     ZZ     -47.6749

 Total job time:  168.82s(wall), 164.46s(cpu)
        *  Thank you very much for using Q-Chem.  Have a nice day.  *
