 Q-Chem 5.4, Q-Chem, Inc., Pleasanton, CA (2021)
 Q-Chem 5.4.0 for Intel X86 EM64T Linux

User input:
--------------------------------------------------------------
$molecule
0 1
C	0.051147	0.590382	-0.001077
C	0.051100	-0.253964	-1.114298
C	0.051406	-1.645012	-0.822186
H	0.051044	0.134378	-2.144066
C	0.051643	-1.893492	0.561921
S	0.050943	-0.380580	1.463440
C	0.051648	-2.709371	-1.884241
H	0.051471	-2.261180	-2.896729
H	-0.840590	-3.365642	-1.810154
H	0.944265	-3.365138	-1.810248
C	-0.673921	1.846236	-0.001077
H	-1.740624	1.677287	-0.001077
H	-0.430847	2.433487	-0.874262
H	-0.430847	2.433487	0.872108
H	0.051785	-2.851651	1.095219
$end

$rem
JOBTYPE		SP
EXCHANGE	HF
CORRELATION	pRIMP2
BASIS		cc-pvtz
METHOD		rimp2
AUX_BASIS	rimp2-cc-pvtz
SOLVENT_METHOD	PCM
PURECART	11111
SYMMETRY	false
MEM_TOTAL	110000
SCF_CONVERGENCE = 6
THRESH=10
$end

$solvent
dielectric 4.90
$end
--------------------------------------------------------------

             Standard Nuclear Orientation (Angstroms)
    I     Atom           X                Y                Z
 ----------------------------------------------------------------
    1      C       0.0511470000     0.5903820000    -0.0010770000
    2      C       0.0511000000    -0.2539640000    -1.1142980000
    3      C       0.0514060000    -1.6450120000    -0.8221860000
    4      H       0.0510440000     0.1343780000    -2.1440660000
    5      C       0.0516430000    -1.8934920000     0.5619210000
    6      S       0.0509430000    -0.3805800000     1.4634400000
    7      C       0.0516480000    -2.7093710000    -1.8842410000
    8      H       0.0514710000    -2.2611800000    -2.8967290000
    9      H      -0.8405900000    -3.3656420000    -1.8101540000
   10      H       0.9442650000    -3.3651380000    -1.8102480000
   11      C      -0.6739210000     1.8462360000    -0.0010770000
   12      H      -1.7406240000     1.6772870000    -0.0010770000
   13      H      -0.4308470000     2.4334870000    -0.8742620000
   14      H      -0.4308470000     2.4334870000     0.8721080000
   15      H       0.0517850000    -2.8516510000     1.0952190000
 ----------------------------------------------------------------

   10    -629.4569090523      5.39e-07  Convergence criterion met
 Total energy in the final basis set =     -629.4569090523
        RIMP2         total energy =      -630.6301320254 a.u.

                    Orbital Energies (a.u.)
 --------------------------------------------------------------

 Alpha MOs
 -- Occupied --
-91.9769 -11.2623 -11.2604 -11.2475 -11.2322 -11.2273 -11.2182  -8.9769
 -6.6579  -6.6573  -6.6568  -1.1606  -1.0470  -0.9940  -0.9368  -0.8799
 -0.7411  -0.7192  -0.6390  -0.5892  -0.5830  -0.5659  -0.5629  -0.5436
 -0.5090  -0.4899  -0.4719  -0.4549  -0.3374  -0.3003

          Ground-State Mulliken Net Atomic Charges

     Atom                 Charge (a.u.)
  ----------------------------------------
      1 C                    -0.003338
      2 C                    -0.263116
      3 C                     0.042946
      4 H                     0.179158
      5 C                    -0.250816
      6 S                    -0.003554
      7 C                    -0.270378
      8 H                     0.101751
      9 H                     0.106271
     10 H                     0.106869
     11 C                    -0.283996
     12 H                     0.120142
     13 H                     0.113268
     14 H                     0.110407
     15 H                     0.194386
  ----------------------------------------
  Sum of atomic charges =     0.000000

                    Cartesian Multipole Moments
 -----------------------------------------------------------------
    Charge (ESU x 10^10)
                -0.0000
    Dipole Moment (Debye)
         X      -0.7409      Y      -0.3502      Z      -1.5680
       Tot       1.7693
    Quadrupole Moments (Debye-Ang)
        XX     -53.5429     XY      -0.8720     YY     -43.4052
        XZ       0.0160     YZ       0.1787     ZZ     -48.3792

 Total job time:  160.73s(wall), 156.96s(cpu)
        *  Thank you very much for using Q-Chem.  Have a nice day.  *
