 Q-Chem 5.4, Q-Chem, Inc., Pleasanton, CA (2021)
 Q-Chem 5.4.0 for Intel X86 EM64T Linux

User input:
--------------------------------------------------------------
$molecule
0 1
C	0.026454	0.580154	-0.001077
C	0.026407	-0.264192	-1.114298
C	0.026713	-1.655240	-0.822186
H	0.026351	0.124150	-2.144066
C	0.026950	-1.903720	0.561921
S	0.026250	-0.390808	1.463440
C	0.026955	-2.719599	-1.884241
H	0.026778	-2.271408	-2.896729
H	-0.865283	-3.375870	-1.810154
H	0.919572	-3.375366	-1.810248
C	-0.348869	1.980877	-0.001077
H	-1.422952	2.093768	-0.001077
H	0.037914	2.485206	-0.874262
H	0.037914	2.485206	0.872108
H	0.027092	-2.861879	1.095219
$end

$rem
JOBTYPE		SP
EXCHANGE	HF
CORRELATION	pRIMP2
BASIS		cc-pvtz
METHOD		rimp2
AUX_BASIS	rimp2-cc-pvtz
SOLVENT_METHOD	PCM
PURECART	11111
SYMMETRY	false
MEM_TOTAL	110000
SCF_CONVERGENCE = 6
THRESH=10
$end

$solvent
dielectric 4.90
$end
--------------------------------------------------------------

             Standard Nuclear Orientation (Angstroms)
    I     Atom           X                Y                Z
 ----------------------------------------------------------------
    1      C       0.0264540000     0.5801540000    -0.0010770000
    2      C       0.0264070000    -0.2641920000    -1.1142980000
    3      C       0.0267130000    -1.6552400000    -0.8221860000
    4      H       0.0263510000     0.1241500000    -2.1440660000
    5      C       0.0269500000    -1.9037200000     0.5619210000
    6      S       0.0262500000    -0.3908080000     1.4634400000
    7      C       0.0269550000    -2.7195990000    -1.8842410000
    8      H       0.0267780000    -2.2714080000    -2.8967290000
    9      H      -0.8652830000    -3.3758700000    -1.8101540000
   10      H       0.9195720000    -3.3753660000    -1.8102480000
   11      C      -0.3488690000     1.9808770000    -0.0010770000
   12      H      -1.4229520000     2.0937680000    -0.0010770000
   13      H       0.0379140000     2.4852060000    -0.8742620000
   14      H       0.0379140000     2.4852060000     0.8721080000
   15      H       0.0270920000    -2.8618790000     1.0952190000
 ----------------------------------------------------------------

   10    -629.4695815232      5.68e-07  Convergence criterion met
 Total energy in the final basis set =     -629.4695815232
        RIMP2         total energy =      -630.6396760256 a.u.

                    Orbital Energies (a.u.)
 --------------------------------------------------------------

 Alpha MOs
 -- Occupied --
-91.9780 -11.2682 -11.2557 -11.2470 -11.2286 -11.2269 -11.2200  -8.9778
 -6.6587  -6.6582  -6.6577  -1.1586  -1.0467  -0.9942  -0.9377  -0.8805
 -0.7400  -0.7176  -0.6397  -0.5896  -0.5836  -0.5652  -0.5633  -0.5440
 -0.5063  -0.4900  -0.4799  -0.4552  -0.3375  -0.3001

          Ground-State Mulliken Net Atomic Charges

     Atom                 Charge (a.u.)
  ----------------------------------------
      1 C                     0.026479
      2 C                    -0.284545
      3 C                     0.044878
      4 H                     0.179021
      5 C                    -0.262153
      6 S                    -0.005617
      7 C                    -0.272356
      8 H                     0.101579
      9 H                     0.106815
     10 H                     0.106877
     11 C                    -0.281677
     12 H                     0.118089
     13 H                     0.116516
     14 H                     0.112004
     15 H                     0.194091
  ----------------------------------------
  Sum of atomic charges =     0.000000

                    Cartesian Multipole Moments
 -----------------------------------------------------------------
    Charge (ESU x 10^10)
                -0.0000
    Dipole Moment (Debye)
         X      -0.4092      Y       0.1110      Z      -1.4959
       Tot       1.5548
    Quadrupole Moments (Debye-Ang)
        XX     -53.7138     XY      -0.5214     YY     -42.8476
        XZ       0.0112     YZ       0.2849     ZZ     -48.4913

 Total job time:  161.37s(wall), 155.66s(cpu)
        *  Thank you very much for using Q-Chem.  Have a nice day.  *
