 Q-Chem 5.4, Q-Chem, Inc., Pleasanton, CA (2021)
 Q-Chem 5.4.0 for Intel X86 EM64T Linux

User input:
--------------------------------------------------------------
$molecule
0 1
C	0.065766	0.600619	-0.001077
C	0.065719	-0.243727	-1.114298
C	0.066025	-1.634775	-0.822186
H	0.065663	0.144615	-2.144066
C	0.066262	-1.883255	0.561921
S	0.065562	-0.370343	1.463440
C	0.066267	-2.699134	-1.884241
H	0.066090	-2.250943	-2.896729
H	-0.825971	-3.355405	-1.810154
H	0.958884	-3.354901	-1.810248
C	-0.866363	1.711487	-0.001077
H	-1.887523	1.359873	-0.001077
H	-0.728957	2.332026	-0.874262
H	-0.728957	2.332026	0.872108
H	0.066404	-2.841414	1.095219
$end

$rem
JOBTYPE		SP
EXCHANGE	HF
CORRELATION	pRIMP2
BASIS		cc-pvtz
METHOD		rimp2
AUX_BASIS	rimp2-cc-pvtz
SOLVENT_METHOD	PCM
PURECART	11111
SYMMETRY	false
MEM_TOTAL	110000
SCF_CONVERGENCE = 6
THRESH=10
$end

$solvent
dielectric 4.90
$end
--------------------------------------------------------------

             Standard Nuclear Orientation (Angstroms)
    I     Atom           X                Y                Z
 ----------------------------------------------------------------
    1      C       0.0657660000     0.6006190000    -0.0010770000
    2      C       0.0657190000    -0.2437270000    -1.1142980000
    3      C       0.0660250000    -1.6347750000    -0.8221860000
    4      H       0.0656630000     0.1446150000    -2.1440660000
    5      C       0.0662620000    -1.8832550000     0.5619210000
    6      S       0.0655620000    -0.3703430000     1.4634400000
    7      C       0.0662670000    -2.6991340000    -1.8842410000
    8      H       0.0660900000    -2.2509430000    -2.8967290000
    9      H      -0.8259710000    -3.3554050000    -1.8101540000
   10      H       0.9588840000    -3.3549010000    -1.8102480000
   11      C      -0.8663630000     1.7114870000    -0.0010770000
   12      H      -1.8875230000     1.3598730000    -0.0010770000
   13      H      -0.7289570000     2.3320260000    -0.8742620000
   14      H      -0.7289570000     2.3320260000     0.8721080000
   15      H       0.0664040000    -2.8414140000     1.0952190000
 ----------------------------------------------------------------

   10    -629.4435016922      5.28e-07  Convergence criterion met
 Total energy in the final basis set =     -629.4435016922
        RIMP2         total energy =      -630.6197223370 a.u.

                    Orbital Energies (a.u.)
 --------------------------------------------------------------

 Alpha MOs
 -- Occupied --
-91.9760 -11.2657 -11.2559 -11.2480 -11.2364 -11.2278 -11.2166  -8.9762
 -6.6571  -6.6565  -6.6560  -1.1630  -1.0476  -0.9941  -0.9358  -0.8793
 -0.7425  -0.7210  -0.6385  -0.5894  -0.5828  -0.5663  -0.5627  -0.5432
 -0.5112  -0.4895  -0.4652  -0.4538  -0.3372  -0.3007

          Ground-State Mulliken Net Atomic Charges

     Atom                 Charge (a.u.)
  ----------------------------------------
      1 C                    -0.032142
      2 C                    -0.231244
      3 C                     0.031785
      4 H                     0.179836
      5 C                    -0.235603
      6 S                    -0.001492
      7 C                    -0.269446
      8 H                     0.101929
      9 H                     0.105771
     10 H                     0.106881
     11 C                    -0.286251
     12 H                     0.117479
     13 H                     0.109599
     14 H                     0.107824
     15 H                     0.195073
  ----------------------------------------
  Sum of atomic charges =     0.000000

                    Cartesian Multipole Moments
 -----------------------------------------------------------------
    Charge (ESU x 10^10)
                -0.0000
    Dipole Moment (Debye)
         X      -0.9008      Y      -0.8210      Z      -1.6360
       Tot       2.0401
    Quadrupole Moments (Debye-Ang)
        XX     -53.4975     XY      -0.9739     YY     -43.8296
        XZ       0.0062     YZ       0.0752     ZZ     -48.2314

 Total job time:  164.66s(wall), 160.35s(cpu)
        *  Thank you very much for using Q-Chem.  Have a nice day.  *
