 Q-Chem 5.4, Q-Chem, Inc., Pleasanton, CA (2021)
 Q-Chem 5.4.0 for Intel X86 EM64T Linux

User input:
--------------------------------------------------------------
$molecule
0 1
C	0.078386	0.613239	-0.001077
C	0.078339	-0.231107	-1.114298
C	0.078645	-1.622155	-0.822186
H	0.078283	0.157235	-2.144066
C	0.078882	-1.870635	0.561921
S	0.078182	-0.357723	1.463440
C	0.078887	-2.686514	-1.884241
H	0.078710	-2.238323	-2.896729
H	-0.813351	-3.342785	-1.810154
H	0.971504	-3.342281	-1.810248
C	-1.032482	1.545368	-0.001077
H	-1.977071	1.021774	-0.001077
H	-1.004919	2.180339	-0.874262
H	-1.004919	2.180339	0.872108
H	0.079024	-2.828794	1.095219
$end

$rem
JOBTYPE		SP
EXCHANGE	HF
CORRELATION	pRIMP2
BASIS		cc-pvtz
METHOD		rimp2
AUX_BASIS	rimp2-cc-pvtz
SOLVENT_METHOD	PCM
PURECART	11111
SYMMETRY	false
MEM_TOTAL	110000
SCF_CONVERGENCE = 6
THRESH=10
$end

$solvent
dielectric 4.90
$end
--------------------------------------------------------------

             Standard Nuclear Orientation (Angstroms)
    I     Atom           X                Y                Z
 ----------------------------------------------------------------
    1      C       0.0783860000     0.6132390000    -0.0010770000
    2      C       0.0783390000    -0.2311070000    -1.1142980000
    3      C       0.0786450000    -1.6221550000    -0.8221860000
    4      H       0.0782830000     0.1572350000    -2.1440660000
    5      C       0.0788820000    -1.8706350000     0.5619210000
    6      S       0.0781820000    -0.3577230000     1.4634400000
    7      C       0.0788870000    -2.6865140000    -1.8842410000
    8      H       0.0787100000    -2.2383230000    -2.8967290000
    9      H      -0.8133510000    -3.3427850000    -1.8101540000
   10      H       0.9715040000    -3.3422810000    -1.8102480000
   11      C      -1.0324820000     1.5453680000    -0.0010770000
   12      H      -1.9770710000     1.0217740000    -0.0010770000
   13      H      -1.0049190000     2.1803390000    -0.8742620000
   14      H      -1.0049190000     2.1803390000     0.8721080000
   15      H       0.0790240000    -2.8287940000     1.0952190000
 ----------------------------------------------------------------

   10    -629.4261813795      6.81e-07  Convergence criterion met
 Total energy in the final basis set =     -629.4261813795
        RIMP2         total energy =      -630.6057234320 a.u.

                    Orbital Energies (a.u.)
 --------------------------------------------------------------

 Alpha MOs
 -- Occupied --
-91.9750 -11.2729 -11.2489 -11.2474 -11.2422 -11.2284 -11.2150  -8.9755
 -6.6564  -6.6556  -6.6553  -1.1666  -1.0489  -0.9947  -0.9348  -0.8785
 -0.7448  -0.7237  -0.6386  -0.5905  -0.5829  -0.5664  -0.5628  -0.5425
 -0.5133  -0.4892  -0.4605  -0.4491  -0.3370  -0.3016

          Ground-State Mulliken Net Atomic Charges

     Atom                 Charge (a.u.)
  ----------------------------------------
      1 C                    -0.070361
      2 C                    -0.184433
      3 C                     0.011303
      4 H                     0.181542
      5 C                    -0.213912
      6 S                     0.001976
      7 C                    -0.268704
      8 H                     0.102188
      9 H                     0.105212
     10 H                     0.106868
     11 C                    -0.287324
     12 H                     0.109898
     13 H                     0.105023
     14 H                     0.104309
     15 H                     0.196413
  ----------------------------------------
  Sum of atomic charges =     0.000000

                    Cartesian Multipole Moments
 -----------------------------------------------------------------
    Charge (ESU x 10^10)
                -0.0000
    Dipole Moment (Debye)
         X      -0.9981      Y      -1.4184      Z      -1.7147
       Tot       2.4389
    Quadrupole Moments (Debye-Ang)
        XX     -53.5710     XY      -1.0306     YY     -44.1961
        XZ      -0.0267     YZ      -0.0566     ZZ     -48.0022

 Total job time:  166.97s(wall), 162.36s(cpu)
        *  Thank you very much for using Q-Chem.  Have a nice day.  *
