 Q-Chem 5.4, Q-Chem, Inc., Pleasanton, CA (2021)
 Q-Chem 5.4.0 for Intel X86 EM64T Linux

User input:
--------------------------------------------------------------
$molecule
0 1
C	0.008878	0.577055	-0.001077
C	0.008831	-0.267291	-1.114298
C	0.009137	-1.658339	-0.822186
H	0.008775	0.121051	-2.144066
C	0.009374	-1.906819	0.561921
S	0.008674	-0.393907	1.463440
C	0.009379	-2.722698	-1.884241
H	0.009202	-2.274507	-2.896729
H	-0.882859	-3.378969	-1.810154
H	0.901996	-3.378465	-1.810248
C	-0.117510	2.021672	-0.001077
H	-1.155672	2.319360	-0.001077
H	0.350973	2.451175	-0.874262
H	0.350973	2.451175	0.872108
H	0.009516	-2.864978	1.095219
$end

$rem
JOBTYPE		SP
EXCHANGE	HF
CORRELATION	pRIMP2
BASIS		cc-pvtz
METHOD		rimp2
AUX_BASIS	rimp2-cc-pvtz
SOLVENT_METHOD	PCM
PURECART	11111
SYMMETRY	false
MEM_TOTAL	110000
SCF_CONVERGENCE = 6
THRESH=10
$end

$solvent
dielectric 4.90
$end
--------------------------------------------------------------

             Standard Nuclear Orientation (Angstroms)
    I     Atom           X                Y                Z
 ----------------------------------------------------------------
    1      C       0.0088780000     0.5770550000    -0.0010770000
    2      C       0.0088310000    -0.2672910000    -1.1142980000
    3      C       0.0091370000    -1.6583390000    -0.8221860000
    4      H       0.0087750000     0.1210510000    -2.1440660000
    5      C       0.0093740000    -1.9068190000     0.5619210000
    6      S       0.0086740000    -0.3939070000     1.4634400000
    7      C       0.0093790000    -2.7226980000    -1.8842410000
    8      H       0.0092020000    -2.2745070000    -2.8967290000
    9      H      -0.8828590000    -3.3789690000    -1.8101540000
   10      H       0.9019960000    -3.3784650000    -1.8102480000
   11      C      -0.1175100000     2.0216720000    -0.0010770000
   12      H      -1.1556720000     2.3193600000    -0.0010770000
   13      H       0.3509730000     2.4511750000    -0.8742620000
   14      H       0.3509730000     2.4511750000     0.8721080000
   15      H       0.0095160000    -2.8649780000     1.0952190000
 ----------------------------------------------------------------

   10    -629.4730362257      5.80e-07  Convergence criterion met
 Total energy in the final basis set =     -629.4730362257
        RIMP2         total energy =      -630.6421845519 a.u.

                    Orbital Energies (a.u.)
 --------------------------------------------------------------

 Alpha MOs
 -- Occupied --
-91.9783 -11.2698 -11.2543 -11.2468 -11.2275 -11.2268 -11.2204  -8.9780
 -6.6590  -6.6585  -6.6579  -1.1580  -1.0466  -0.9943  -0.9380  -0.8807
 -0.7397  -0.7171  -0.6399  -0.5897  -0.5838  -0.5649  -0.5634  -0.5441
 -0.5053  -0.4898  -0.4826  -0.4553  -0.3374  -0.3000

          Ground-State Mulliken Net Atomic Charges

     Atom                 Charge (a.u.)
  ----------------------------------------
      1 C                     0.037461
      2 C                    -0.285402
      3 C                     0.040859
      4 H                     0.179095
      5 C                    -0.263986
      6 S                    -0.006475
      7 C                    -0.273658
      8 H                     0.101510
      9 H                     0.106970
     10 H                     0.106928
     11 C                    -0.282304
     12 H                     0.115839
     13 H                     0.117285
     14 H                     0.111807
     15 H                     0.194070
  ----------------------------------------
  Sum of atomic charges =     0.000000

                    Cartesian Multipole Moments
 -----------------------------------------------------------------
    Charge (ESU x 10^10)
                -0.0000
    Dipole Moment (Debye)
         X      -0.1490      Y       0.2556      Z      -1.4711
       Tot       1.5005
    Quadrupole Moments (Debye-Ang)
        XX     -53.7931     XY      -0.1633     YY     -42.6640
        XZ       0.0066     YZ       0.3256     ZZ     -48.5123

 Total job time:  181.78s(wall), 155.07s(cpu)
        *  Thank you very much for using Q-Chem.  Have a nice day.  *
