 Q-Chem 5.4, Q-Chem, Inc., Pleasanton, CA (2021)
 Q-Chem 5.4.0 for Intel X86 EM64T Linux

User input:
--------------------------------------------------------------
$molecule
0 1
C	-0.000046	0.576665	-0.001077
C	-0.000093	-0.267681	-1.114298
C	0.000213	-1.658729	-0.822186
H	-0.000149	0.120661	-2.144066
C	0.000450	-1.907209	0.561921
S	-0.000250	-0.394297	1.463440
C	0.000455	-2.723088	-1.884241
H	0.000278	-2.274897	-2.896729
H	-0.891783	-3.379359	-1.810154
H	0.893072	-3.378855	-1.810248
C	-0.000046	2.026800	-0.001077
H	-1.008313	2.413838	-0.001077
H	0.504087	2.413838	-0.874262
H	0.504087	2.413838	0.872108
H	0.000592	-2.865368	1.095219
$end

$rem
JOBTYPE		SP
EXCHANGE	HF
CORRELATION	pRIMP2
BASIS		cc-pvtz
METHOD		rimp2
AUX_BASIS	rimp2-cc-pvtz
SOLVENT_METHOD	PCM
PURECART	11111
SYMMETRY	false
MEM_TOTAL	110000
SCF_CONVERGENCE = 6
THRESH=10
$end

$solvent
dielectric 4.90
$end
--------------------------------------------------------------

             Standard Nuclear Orientation (Angstroms)
    I     Atom           X                Y                Z
 ----------------------------------------------------------------
    1      C      -0.0000460000     0.5766650000    -0.0010770000
    2      C      -0.0000930000    -0.2676810000    -1.1142980000
    3      C       0.0002130000    -1.6587290000    -0.8221860000
    4      H      -0.0001490000     0.1206610000    -2.1440660000
    5      C       0.0004500000    -1.9072090000     0.5619210000
    6      S      -0.0002500000    -0.3942970000     1.4634400000
    7      C       0.0004550000    -2.7230880000    -1.8842410000
    8      H       0.0002780000    -2.2748970000    -2.8967290000
    9      H      -0.8917830000    -3.3793590000    -1.8101540000
   10      H       0.8930720000    -3.3788550000    -1.8102480000
   11      C      -0.0000460000     2.0268000000    -0.0010770000
   12      H      -1.0083130000     2.4138380000    -0.0010770000
   13      H       0.5040870000     2.4138380000    -0.8742620000
   14      H       0.5040870000     2.4138380000     0.8721080000
   15      H       0.0005920000    -2.8653680000     1.0952190000
 ----------------------------------------------------------------

   10    -629.4732520846      5.81e-07  Convergence criterion met
 Total energy in the final basis set =     -629.4732520846
        RIMP2         total energy =      -630.6422890214 a.u.

                    Orbital Energies (a.u.)
 --------------------------------------------------------------

 Alpha MOs
 -- Occupied --
-91.9783 -11.2700 -11.2541 -11.2467 -11.2274 -11.2268 -11.2204  -8.9780
 -6.6590  -6.6585  -6.6579  -1.1579  -1.0466  -0.9943  -0.9380  -0.8806
 -0.7396  -0.7171  -0.6399  -0.5897  -0.5839  -0.5650  -0.5633  -0.5441
 -0.5052  -0.4898  -0.4828  -0.4553  -0.3374  -0.2999

          Ground-State Mulliken Net Atomic Charges

     Atom                 Charge (a.u.)
  ----------------------------------------
      1 C                     0.039178
      2 C                    -0.283637
      3 C                     0.038973
      4 H                     0.179057
      5 C                    -0.263821
      6 S                    -0.006485
      7 C                    -0.274012
      8 H                     0.101487
      9 H                     0.106985
     10 H                     0.106943
     11 C                    -0.283008
     12 H                     0.115092
     13 H                     0.117567
     14 H                     0.111648
     15 H                     0.194032
  ----------------------------------------
  Sum of atomic charges =     0.000000

                    Cartesian Multipole Moments
 -----------------------------------------------------------------
    Charge (ESU x 10^10)
                -0.0000
    Dipole Moment (Debye)
         X      -0.0133      Y       0.2782      Z      -1.4667
       Tot       1.4929
    Quadrupole Moments (Debye-Ang)
        XX     -53.8024     XY       0.0346     YY     -42.6531
        XZ       0.0058     YZ       0.3363     ZZ     -48.5097

 Total job time:  162.31s(wall), 155.93s(cpu)
        *  Thank you very much for using Q-Chem.  Have a nice day.  *
